
             +---------------------------------------------------+
             |                                                   |
             |                   WANNIER90                       |
             |                                                   |
             +---------------------------------------------------+
             |                                                   |
             |        Welcome to the Maximally-Localized         |
             |        Generalized Wannier Functions code         |
             |            http://www.wannier.org                 |
             |                                                   |
             |  Wannier90 Authors:                               |
             |    Arash A. Mostofi   (Imperial College London)   |
             |    Jonathan R. Yates  (University of Oxford)      |
             |    Young-Su Lee       (KIST, S. Korea)            |
             |                                                   |
             |  Wannier90 Contributors:                          |
             |    Matthew Shelley    (Imperial College London)   |
             |    Nicolas Poilvert   (MIT)                       |
             |                                                   |
             |  Wannier77 Authors:                               |
             |    Nicola Marzari     (University of Oxford)      |
             |    Ivo Souza          (UC Berkeley)               |
             |    David Vanderbilt   (Rutgers University)        |
             |                                                   |
             |  Please cite                                      |
             |                                                   |
             |  [ref] "Wannier90: A Tool for Obtaining Maximally |
             |         Localised Wannier Functions"              |
             |        A. A. Mostofi, J. R. Yates, Y.-S. Lee,     |
             |        I. Souza, D. Vanderbilt and N. Marzari     |
             |        Comput. Phys. Commun. 178, 685 (2008)      |
             |                                                   |
             |  in any publications arising from the use of      |
             |  this code. For the method please cite            |
             |                                                   |
             |  [ref] "Maximally Localized Generalised Wannier   |
             |         Functions for Composite Energy Bands"     |
             |         N. Marzari and D. Vanderbilt              |
             |         Phys. Rev. B 56 12847 (1997)              |
             |                                                   |
             |  [ref] "Maximally Localized Wannier Functions     |
             |         for Entangled Energy Bands"               |
             |         I. Souza, N. Marzari and D. Vanderbilt    |
             |         Phys. Rev. B 65 035109 (2001)             |
             |                                                   |
             |                                                   |
             | Copyright (c) 1996-2010                           |
             |        A. A. Mostofi, J. R. Yates, Y.-S. Lee,     |
             |        I. Souza, D. Vanderbilt and N. Marzari     |
             |                                                   |
             |        Release: 1.2        24th Jan 2010          |
             |                                                   |
             | This program is free software; you can            |
             | redistribute it and/or modify it under the terms  |
             | of the GNU General Public License as published by |
             | the Free Software Foundation; either version 2 of |
             | the License, or (at your option) any later version|
             |                                                   |
             | This program is distributed in the hope that it   |
             | will be useful, but WITHOUT ANY WARRANTY; without |
             | even the implied warranty of MERCHANTABILITY or   |
             | FITNESS FOR A PARTICULAR PURPOSE. See the GNU     |
             | General Public License for more details.          |
             |                                                   |
             | You should have received a copy of the GNU General|
             | Public License along with this program; if not,   |
             | write to the Free Software Foundation, Inc.,      |
             | 675 Mass Ave, Cambridge, MA 02139, USA.           |
             |                                                   |
             +---------------------------------------------------+
             |    Execution started on  8Feb2022 at 19:42:56     |
             +---------------------------------------------------+

                                    ------
                                    SYSTEM
                                    ------

                              Lattice Vectors (Ang)
                    a_1     6.330000   0.000000   0.000000
                    a_2     0.000000   3.469000   0.000000
                    a_3    -0.858205   0.000000  13.833405

                   Unit Cell Volume:     303.76455  (Ang^3)

                        Reciprocal-Space Vectors (Ang^-1)
                    b_1     0.992604  -0.000000   0.061580
                    b_2     0.000000   1.811238  -0.000000
                    b_3     0.000000   0.000000   0.454204
  
 *----------------------------------------------------------------------------*
 |   Site       Fractional Coordinate          Cartesian Coordinate (Ang)     |
 +----------------------------------------------------------------------------+
 | Mo   1   0.18300   0.25000   0.00700   |    1.15238   0.86725   0.09683    |
 | Mo   2  -0.18300  -0.25000  -0.00700   |   -1.15238  -0.86725  -0.09683    |
 | Mo   3   0.31800   0.75000   0.50700   |    1.57783   2.60175   7.01354    |
 | Mo   4  -0.31800  -0.75000  -0.50700   |   -1.57783  -2.60175  -7.01354    |
 | Te   1   0.58900   0.25000   0.10400   |    3.63912   0.86725   1.43867    |
 | Te   2  -0.58900  -0.25000  -0.10400   |   -3.63912  -0.86725  -1.43867    |
 | Te   3   0.05600   0.25000   0.39600   |    0.01463   0.86725   5.47803    |
 | Te   4  -0.05600  -0.25000  -0.39600   |   -0.01463  -0.86725  -5.47803    |
 | Te   5   0.09700   0.75000   0.14900   |    0.48614   2.60175   2.06118    |
 | Te   6  -0.09700  -0.75000  -0.14900   |   -0.48614  -2.60175  -2.06118    |
 | Te   7   0.55700   0.75000   0.35200   |    3.22372   2.60175   4.86936    |
 | Te   8  -0.55700  -0.75000  -0.35200   |   -3.22372  -2.60175  -4.86936    |
 *----------------------------------------------------------------------------*
  
                                -----------
                                PROJECTIONS
                                -----------
  
 +----------------------------------------------------------------------------+
 |     Frac. Coord.   l mr  r        z-axis               x-axis          Z/a |
 +----------------------------------------------------------------------------+
 |  0.18  0.25  0.01  2  1  1  0.000  0.000  1.000  1.000  0.000  0.000   1.0 |
 |  0.18  0.25  0.01  2  2  1  0.000  0.000  1.000  1.000  0.000  0.000   1.0 |
 |  0.18  0.25  0.01  2  3  1  0.000  0.000  1.000  1.000  0.000  0.000   1.0 |
 |  0.18  0.25  0.01  2  4  1  0.000  0.000  1.000  1.000  0.000  0.000   1.0 |
 |  0.18  0.25  0.01  2  5  1  0.000  0.000  1.000  1.000  0.000  0.000   1.0 |
 | -0.18 -0.25 -0.01  2  1  1  0.000  0.000  1.000  1.000  0.000  0.000   1.0 |
 | -0.18 -0.25 -0.01  2  2  1  0.000  0.000  1.000  1.000  0.000  0.000   1.0 |
 | -0.18 -0.25 -0.01  2  3  1  0.000  0.000  1.000  1.000  0.000  0.000   1.0 |
 | -0.18 -0.25 -0.01  2  4  1  0.000  0.000  1.000  1.000  0.000  0.000   1.0 |
 | -0.18 -0.25 -0.01  2  5  1  0.000  0.000  1.000  1.000  0.000  0.000   1.0 |
 |  0.32  0.75  0.51  2  1  1  0.000  0.000  1.000  1.000  0.000  0.000   1.0 |
 |  0.32  0.75  0.51  2  2  1  0.000  0.000  1.000  1.000  0.000  0.000   1.0 |
 |  0.32  0.75  0.51  2  3  1  0.000  0.000  1.000  1.000  0.000  0.000   1.0 |
 |  0.32  0.75  0.51  2  4  1  0.000  0.000  1.000  1.000  0.000  0.000   1.0 |
 |  0.32  0.75  0.51  2  5  1  0.000  0.000  1.000  1.000  0.000  0.000   1.0 |
 | -0.32 -0.75 -0.51  2  1  1  0.000  0.000  1.000  1.000  0.000  0.000   1.0 |
 | -0.32 -0.75 -0.51  2  2  1  0.000  0.000  1.000  1.000  0.000  0.000   1.0 |
 | -0.32 -0.75 -0.51  2  3  1  0.000  0.000  1.000  1.000  0.000  0.000   1.0 |
 | -0.32 -0.75 -0.51  2  4  1  0.000  0.000  1.000  1.000  0.000  0.000   1.0 |
 | -0.32 -0.75 -0.51  2  5  1  0.000  0.000  1.000  1.000  0.000  0.000   1.0 |
 |  0.59  0.25  0.10  1  1  1  0.000  0.000  1.000  1.000  0.000  0.000   1.0 |
 |  0.59  0.25  0.10  1  2  1  0.000  0.000  1.000  1.000  0.000  0.000   1.0 |
 |  0.59  0.25  0.10  1  3  1  0.000  0.000  1.000  1.000  0.000  0.000   1.0 |
 | -0.59 -0.25 -0.10  1  1  1  0.000  0.000  1.000  1.000  0.000  0.000   1.0 |
 | -0.59 -0.25 -0.10  1  2  1  0.000  0.000  1.000  1.000  0.000  0.000   1.0 |
 | -0.59 -0.25 -0.10  1  3  1  0.000  0.000  1.000  1.000  0.000  0.000   1.0 |
 |  0.06  0.25  0.40  1  1  1  0.000  0.000  1.000  1.000  0.000  0.000   1.0 |
 |  0.06  0.25  0.40  1  2  1  0.000  0.000  1.000  1.000  0.000  0.000   1.0 |
 |  0.06  0.25  0.40  1  3  1  0.000  0.000  1.000  1.000  0.000  0.000   1.0 |
 | -0.06 -0.25 -0.40  1  1  1  0.000  0.000  1.000  1.000  0.000  0.000   1.0 |
 | -0.06 -0.25 -0.40  1  2  1  0.000  0.000  1.000  1.000  0.000  0.000   1.0 |
 | -0.06 -0.25 -0.40  1  3  1  0.000  0.000  1.000  1.000  0.000  0.000   1.0 |
 |  0.10  0.75  0.15  1  1  1  0.000  0.000  1.000  1.000  0.000  0.000   1.0 |
 |  0.10  0.75  0.15  1  2  1  0.000  0.000  1.000  1.000  0.000  0.000   1.0 |
 |  0.10  0.75  0.15  1  3  1  0.000  0.000  1.000  1.000  0.000  0.000   1.0 |
 | -0.10 -0.75 -0.15  1  1  1  0.000  0.000  1.000  1.000  0.000  0.000   1.0 |
 | -0.10 -0.75 -0.15  1  2  1  0.000  0.000  1.000  1.000  0.000  0.000   1.0 |
 | -0.10 -0.75 -0.15  1  3  1  0.000  0.000  1.000  1.000  0.000  0.000   1.0 |
 |  0.56  0.75  0.35  1  1  1  0.000  0.000  1.000  1.000  0.000  0.000   1.0 |
 |  0.56  0.75  0.35  1  2  1  0.000  0.000  1.000  1.000  0.000  0.000   1.0 |
 |  0.56  0.75  0.35  1  3  1  0.000  0.000  1.000  1.000  0.000  0.000   1.0 |
 | -0.56 -0.75 -0.35  1  1  1  0.000  0.000  1.000  1.000  0.000  0.000   1.0 |
 | -0.56 -0.75 -0.35  1  2  1  0.000  0.000  1.000  1.000  0.000  0.000   1.0 |
 | -0.56 -0.75 -0.35  1  3  1  0.000  0.000  1.000  1.000  0.000  0.000   1.0 |
 +----------------------------------------------------------------------------+
  
                                ------------
                                K-POINT GRID
                                ------------
  
             Grid size = 10 x 20 x  5      Total points = 1000
  
 *----------------------------------------------------------------------------*
 | k-point      Fractional Coordinate        Cartesian Coordinate (Ang^-1)    |
 +----------------------------------------------------------------------------+
 |     1    0.00000   0.00000   0.00000   |    0.00000   0.00000   0.00000    |
 |     2    0.10000   0.00000   0.00000   |    0.09926   0.00000   0.00616    |
 |     3    0.20000   0.00000   0.00000   |    0.19852   0.00000   0.01232    |
 |     4    0.30000   0.00000   0.00000   |    0.29778   0.00000   0.01847    |
 |     5    0.40000   0.00000   0.00000   |    0.39704   0.00000   0.02463    |
 |     6    0.50000   0.00000   0.00000   |    0.49630   0.00000   0.03079    |
 |     7   -0.40000   0.00000   0.00000   |   -0.39704   0.00000  -0.02463    |
 |     8   -0.30000   0.00000   0.00000   |   -0.29778   0.00000  -0.01847    |
 |     9   -0.20000   0.00000   0.00000   |   -0.19852   0.00000  -0.01232    |
 |    10   -0.10000   0.00000   0.00000   |   -0.09926   0.00000  -0.00616    |
 |    11    0.00000   0.05000   0.00000   |    0.00000   0.09056   0.00000    |
 |    12    0.10000   0.05000   0.00000   |    0.09926   0.09056   0.00616    |
 |    13    0.20000   0.05000   0.00000   |    0.19852   0.09056   0.01232    |
 |    14    0.30000   0.05000   0.00000   |    0.29778   0.09056   0.01847    |
 |    15    0.40000   0.05000   0.00000   |    0.39704   0.09056   0.02463    |
 |    16    0.50000   0.05000   0.00000   |    0.49630   0.09056   0.03079    |
 |    17   -0.40000   0.05000   0.00000   |   -0.39704   0.09056  -0.02463    |
 |    18   -0.30000   0.05000   0.00000   |   -0.29778   0.09056  -0.01847    |
 |    19   -0.20000   0.05000   0.00000   |   -0.19852   0.09056  -0.01232    |
 |    20   -0.10000   0.05000   0.00000   |   -0.09926   0.09056  -0.00616    |
 |    21    0.00000   0.10000   0.00000   |    0.00000   0.18112   0.00000    |
 |    22    0.10000   0.10000   0.00000   |    0.09926   0.18112   0.00616    |
 |    23    0.20000   0.10000   0.00000   |    0.19852   0.18112   0.01232    |
 |    24    0.30000   0.10000   0.00000   |    0.29778   0.18112   0.01847    |
 |    25    0.40000   0.10000   0.00000   |    0.39704   0.18112   0.02463    |
 |    26    0.50000   0.10000   0.00000   |    0.49630   0.18112   0.03079    |
 |    27   -0.40000   0.10000   0.00000   |   -0.39704   0.18112  -0.02463    |
 |    28   -0.30000   0.10000   0.00000   |   -0.29778   0.18112  -0.01847    |
 |    29   -0.20000   0.10000   0.00000   |   -0.19852   0.18112  -0.01232    |
 |    30   -0.10000   0.10000   0.00000   |   -0.09926   0.18112  -0.00616    |
 |    31    0.00000   0.15000   0.00000   |    0.00000   0.27169   0.00000    |
 |    32    0.10000   0.15000   0.00000   |    0.09926   0.27169   0.00616    |
 |    33    0.20000   0.15000   0.00000   |    0.19852   0.27169   0.01232    |
 |    34    0.30000   0.15000   0.00000   |    0.29778   0.27169   0.01847    |
 |    35    0.40000   0.15000   0.00000   |    0.39704   0.27169   0.02463    |
 |    36    0.50000   0.15000   0.00000   |    0.49630   0.27169   0.03079    |
 |    37   -0.40000   0.15000   0.00000   |   -0.39704   0.27169  -0.02463    |
 |    38   -0.30000   0.15000   0.00000   |   -0.29778   0.27169  -0.01847    |
 |    39   -0.20000   0.15000   0.00000   |   -0.19852   0.27169  -0.01232    |
 |    40   -0.10000   0.15000   0.00000   |   -0.09926   0.27169  -0.00616    |
 |    41    0.00000   0.20000   0.00000   |    0.00000   0.36225   0.00000    |
 |    42    0.10000   0.20000   0.00000   |    0.09926   0.36225   0.00616    |
 |    43    0.20000   0.20000   0.00000   |    0.19852   0.36225   0.01232    |
 |    44    0.30000   0.20000   0.00000   |    0.29778   0.36225   0.01847    |
 |    45    0.40000   0.20000   0.00000   |    0.39704   0.36225   0.02463    |
 |    46    0.50000   0.20000   0.00000   |    0.49630   0.36225   0.03079    |
 |    47   -0.40000   0.20000   0.00000   |   -0.39704   0.36225  -0.02463    |
 |    48   -0.30000   0.20000   0.00000   |   -0.29778   0.36225  -0.01847    |
 |    49   -0.20000   0.20000   0.00000   |   -0.19852   0.36225  -0.01232    |
 |    50   -0.10000   0.20000   0.00000   |   -0.09926   0.36225  -0.00616    |
 |    51    0.00000   0.25000   0.00000   |    0.00000   0.45281   0.00000    |
 |    52    0.10000   0.25000   0.00000   |    0.09926   0.45281   0.00616    |
 |    53    0.20000   0.25000   0.00000   |    0.19852   0.45281   0.01232    |
 |    54    0.30000   0.25000   0.00000   |    0.29778   0.45281   0.01847    |
 |    55    0.40000   0.25000   0.00000   |    0.39704   0.45281   0.02463    |
 |    56    0.50000   0.25000   0.00000   |    0.49630   0.45281   0.03079    |
 |    57   -0.40000   0.25000   0.00000   |   -0.39704   0.45281  -0.02463    |
 |    58   -0.30000   0.25000   0.00000   |   -0.29778   0.45281  -0.01847    |
 |    59   -0.20000   0.25000   0.00000   |   -0.19852   0.45281  -0.01232    |
 |    60   -0.10000   0.25000   0.00000   |   -0.09926   0.45281  -0.00616    |
 |    61    0.00000   0.30000   0.00000   |    0.00000   0.54337   0.00000    |
 |    62    0.10000   0.30000   0.00000   |    0.09926   0.54337   0.00616    |
 |    63    0.20000   0.30000   0.00000   |    0.19852   0.54337   0.01232    |
 |    64    0.30000   0.30000   0.00000   |    0.29778   0.54337   0.01847    |
 |    65    0.40000   0.30000   0.00000   |    0.39704   0.54337   0.02463    |
 |    66    0.50000   0.30000   0.00000   |    0.49630   0.54337   0.03079    |
 |    67   -0.40000   0.30000   0.00000   |   -0.39704   0.54337  -0.02463    |
 |    68   -0.30000   0.30000   0.00000   |   -0.29778   0.54337  -0.01847    |
 |    69   -0.20000   0.30000   0.00000   |   -0.19852   0.54337  -0.01232    |
 |    70   -0.10000   0.30000   0.00000   |   -0.09926   0.54337  -0.00616    |
 |    71    0.00000   0.35000   0.00000   |    0.00000   0.63393   0.00000    |
 |    72    0.10000   0.35000   0.00000   |    0.09926   0.63393   0.00616    |
 |    73    0.20000   0.35000   0.00000   |    0.19852   0.63393   0.01232    |
 |    74    0.30000   0.35000   0.00000   |    0.29778   0.63393   0.01847    |
 |    75    0.40000   0.35000   0.00000   |    0.39704   0.63393   0.02463    |
 |    76    0.50000   0.35000   0.00000   |    0.49630   0.63393   0.03079    |
 |    77   -0.40000   0.35000   0.00000   |   -0.39704   0.63393  -0.02463    |
 |    78   -0.30000   0.35000   0.00000   |   -0.29778   0.63393  -0.01847    |
 |    79   -0.20000   0.35000   0.00000   |   -0.19852   0.63393  -0.01232    |
 |    80   -0.10000   0.35000   0.00000   |   -0.09926   0.63393  -0.00616    |
 |    81    0.00000   0.40000   0.00000   |    0.00000   0.72450   0.00000    |
 |    82    0.10000   0.40000   0.00000   |    0.09926   0.72450   0.00616    |
 |    83    0.20000   0.40000   0.00000   |    0.19852   0.72450   0.01232    |
 |    84    0.30000   0.40000   0.00000   |    0.29778   0.72450   0.01847    |
 |    85    0.40000   0.40000   0.00000   |    0.39704   0.72450   0.02463    |
 |    86    0.50000   0.40000   0.00000   |    0.49630   0.72450   0.03079    |
 |    87   -0.40000   0.40000   0.00000   |   -0.39704   0.72450  -0.02463    |
 |    88   -0.30000   0.40000   0.00000   |   -0.29778   0.72450  -0.01847    |
 |    89   -0.20000   0.40000   0.00000   |   -0.19852   0.72450  -0.01232    |
 |    90   -0.10000   0.40000   0.00000   |   -0.09926   0.72450  -0.00616    |
 |    91    0.00000   0.45000   0.00000   |    0.00000   0.81506   0.00000    |
 |    92    0.10000   0.45000   0.00000   |    0.09926   0.81506   0.00616    |
 |    93    0.20000   0.45000   0.00000   |    0.19852   0.81506   0.01232    |
 |    94    0.30000   0.45000   0.00000   |    0.29778   0.81506   0.01847    |
 |    95    0.40000   0.45000   0.00000   |    0.39704   0.81506   0.02463    |
 |    96    0.50000   0.45000   0.00000   |    0.49630   0.81506   0.03079    |
 |    97   -0.40000   0.45000   0.00000   |   -0.39704   0.81506  -0.02463    |
 |    98   -0.30000   0.45000   0.00000   |   -0.29778   0.81506  -0.01847    |
 |    99   -0.20000   0.45000   0.00000   |   -0.19852   0.81506  -0.01232    |
 |   100   -0.10000   0.45000   0.00000   |   -0.09926   0.81506  -0.00616    |
 |   101    0.00000   0.50000   0.00000   |    0.00000   0.90562   0.00000    |
 |   102    0.10000   0.50000   0.00000   |    0.09926   0.90562   0.00616    |
 |   103    0.20000   0.50000   0.00000   |    0.19852   0.90562   0.01232    |
 |   104    0.30000   0.50000   0.00000   |    0.29778   0.90562   0.01847    |
 |   105    0.40000   0.50000   0.00000   |    0.39704   0.90562   0.02463    |
 |   106    0.50000   0.50000   0.00000   |    0.49630   0.90562   0.03079    |
 |   107   -0.40000   0.50000   0.00000   |   -0.39704   0.90562  -0.02463    |
 |   108   -0.30000   0.50000   0.00000   |   -0.29778   0.90562  -0.01847    |
 |   109   -0.20000   0.50000   0.00000   |   -0.19852   0.90562  -0.01232    |
 |   110   -0.10000   0.50000   0.00000   |   -0.09926   0.90562  -0.00616    |
 |   111    0.00000  -0.45000   0.00000   |    0.00000  -0.81506   0.00000    |
 |   112    0.10000  -0.45000   0.00000   |    0.09926  -0.81506   0.00616    |
 |   113    0.20000  -0.45000   0.00000   |    0.19852  -0.81506   0.01232    |
 |   114    0.30000  -0.45000   0.00000   |    0.29778  -0.81506   0.01847    |
 |   115    0.40000  -0.45000   0.00000   |    0.39704  -0.81506   0.02463    |
 |   116    0.50000  -0.45000   0.00000   |    0.49630  -0.81506   0.03079    |
 |   117   -0.40000  -0.45000   0.00000   |   -0.39704  -0.81506  -0.02463    |
 |   118   -0.30000  -0.45000   0.00000   |   -0.29778  -0.81506  -0.01847    |
 |   119   -0.20000  -0.45000   0.00000   |   -0.19852  -0.81506  -0.01232    |
 |   120   -0.10000  -0.45000   0.00000   |   -0.09926  -0.81506  -0.00616    |
 |   121    0.00000  -0.40000   0.00000   |    0.00000  -0.72450   0.00000    |
 |   122    0.10000  -0.40000   0.00000   |    0.09926  -0.72450   0.00616    |
 |   123    0.20000  -0.40000   0.00000   |    0.19852  -0.72450   0.01232    |
 |   124    0.30000  -0.40000   0.00000   |    0.29778  -0.72450   0.01847    |
 |   125    0.40000  -0.40000   0.00000   |    0.39704  -0.72450   0.02463    |
 |   126    0.50000  -0.40000   0.00000   |    0.49630  -0.72450   0.03079    |
 |   127   -0.40000  -0.40000   0.00000   |   -0.39704  -0.72450  -0.02463    |
 |   128   -0.30000  -0.40000   0.00000   |   -0.29778  -0.72450  -0.01847    |
 |   129   -0.20000  -0.40000   0.00000   |   -0.19852  -0.72450  -0.01232    |
 |   130   -0.10000  -0.40000   0.00000   |   -0.09926  -0.72450  -0.00616    |
 |   131    0.00000  -0.35000   0.00000   |    0.00000  -0.63393   0.00000    |
 |   132    0.10000  -0.35000   0.00000   |    0.09926  -0.63393   0.00616    |
 |   133    0.20000  -0.35000   0.00000   |    0.19852  -0.63393   0.01232    |
 |   134    0.30000  -0.35000   0.00000   |    0.29778  -0.63393   0.01847    |
 |   135    0.40000  -0.35000   0.00000   |    0.39704  -0.63393   0.02463    |
 |   136    0.50000  -0.35000   0.00000   |    0.49630  -0.63393   0.03079    |
 |   137   -0.40000  -0.35000   0.00000   |   -0.39704  -0.63393  -0.02463    |
 |   138   -0.30000  -0.35000   0.00000   |   -0.29778  -0.63393  -0.01847    |
 |   139   -0.20000  -0.35000   0.00000   |   -0.19852  -0.63393  -0.01232    |
 |   140   -0.10000  -0.35000   0.00000   |   -0.09926  -0.63393  -0.00616    |
 |   141    0.00000  -0.30000   0.00000   |    0.00000  -0.54337   0.00000    |
 |   142    0.10000  -0.30000   0.00000   |    0.09926  -0.54337   0.00616    |
 |   143    0.20000  -0.30000   0.00000   |    0.19852  -0.54337   0.01232    |
 |   144    0.30000  -0.30000   0.00000   |    0.29778  -0.54337   0.01847    |
 |   145    0.40000  -0.30000   0.00000   |    0.39704  -0.54337   0.02463    |
 |   146    0.50000  -0.30000   0.00000   |    0.49630  -0.54337   0.03079    |
 |   147   -0.40000  -0.30000   0.00000   |   -0.39704  -0.54337  -0.02463    |
 |   148   -0.30000  -0.30000   0.00000   |   -0.29778  -0.54337  -0.01847    |
 |   149   -0.20000  -0.30000   0.00000   |   -0.19852  -0.54337  -0.01232    |
 |   150   -0.10000  -0.30000   0.00000   |   -0.09926  -0.54337  -0.00616    |
 |   151    0.00000  -0.25000   0.00000   |    0.00000  -0.45281   0.00000    |
 |   152    0.10000  -0.25000   0.00000   |    0.09926  -0.45281   0.00616    |
 |   153    0.20000  -0.25000   0.00000   |    0.19852  -0.45281   0.01232    |
 |   154    0.30000  -0.25000   0.00000   |    0.29778  -0.45281   0.01847    |
 |   155    0.40000  -0.25000   0.00000   |    0.39704  -0.45281   0.02463    |
 |   156    0.50000  -0.25000   0.00000   |    0.49630  -0.45281   0.03079    |
 |   157   -0.40000  -0.25000   0.00000   |   -0.39704  -0.45281  -0.02463    |
 |   158   -0.30000  -0.25000   0.00000   |   -0.29778  -0.45281  -0.01847    |
 |   159   -0.20000  -0.25000   0.00000   |   -0.19852  -0.45281  -0.01232    |
 |   160   -0.10000  -0.25000   0.00000   |   -0.09926  -0.45281  -0.00616    |
 |   161    0.00000  -0.20000   0.00000   |    0.00000  -0.36225   0.00000    |
 |   162    0.10000  -0.20000   0.00000   |    0.09926  -0.36225   0.00616    |
 |   163    0.20000  -0.20000   0.00000   |    0.19852  -0.36225   0.01232    |
 |   164    0.30000  -0.20000   0.00000   |    0.29778  -0.36225   0.01847    |
 |   165    0.40000  -0.20000   0.00000   |    0.39704  -0.36225   0.02463    |
 |   166    0.50000  -0.20000   0.00000   |    0.49630  -0.36225   0.03079    |
 |   167   -0.40000  -0.20000   0.00000   |   -0.39704  -0.36225  -0.02463    |
 |   168   -0.30000  -0.20000   0.00000   |   -0.29778  -0.36225  -0.01847    |
 |   169   -0.20000  -0.20000   0.00000   |   -0.19852  -0.36225  -0.01232    |
 |   170   -0.10000  -0.20000   0.00000   |   -0.09926  -0.36225  -0.00616    |
 |   171    0.00000  -0.15000   0.00000   |    0.00000  -0.27169   0.00000    |
 |   172    0.10000  -0.15000   0.00000   |    0.09926  -0.27169   0.00616    |
 |   173    0.20000  -0.15000   0.00000   |    0.19852  -0.27169   0.01232    |
 |   174    0.30000  -0.15000   0.00000   |    0.29778  -0.27169   0.01847    |
 |   175    0.40000  -0.15000   0.00000   |    0.39704  -0.27169   0.02463    |
 |   176    0.50000  -0.15000   0.00000   |    0.49630  -0.27169   0.03079    |
 |   177   -0.40000  -0.15000   0.00000   |   -0.39704  -0.27169  -0.02463    |
 |   178   -0.30000  -0.15000   0.00000   |   -0.29778  -0.27169  -0.01847    |
 |   179   -0.20000  -0.15000   0.00000   |   -0.19852  -0.27169  -0.01232    |
 |   180   -0.10000  -0.15000   0.00000   |   -0.09926  -0.27169  -0.00616    |
 |   181    0.00000  -0.10000   0.00000   |    0.00000  -0.18112   0.00000    |
 |   182    0.10000  -0.10000   0.00000   |    0.09926  -0.18112   0.00616    |
 |   183    0.20000  -0.10000   0.00000   |    0.19852  -0.18112   0.01232    |
 |   184    0.30000  -0.10000   0.00000   |    0.29778  -0.18112   0.01847    |
 |   185    0.40000  -0.10000   0.00000   |    0.39704  -0.18112   0.02463    |
 |   186    0.50000  -0.10000   0.00000   |    0.49630  -0.18112   0.03079    |
 |   187   -0.40000  -0.10000   0.00000   |   -0.39704  -0.18112  -0.02463    |
 |   188   -0.30000  -0.10000   0.00000   |   -0.29778  -0.18112  -0.01847    |
 |   189   -0.20000  -0.10000   0.00000   |   -0.19852  -0.18112  -0.01232    |
 |   190   -0.10000  -0.10000   0.00000   |   -0.09926  -0.18112  -0.00616    |
 |   191    0.00000  -0.05000   0.00000   |    0.00000  -0.09056   0.00000    |
 |   192    0.10000  -0.05000   0.00000   |    0.09926  -0.09056   0.00616    |
 |   193    0.20000  -0.05000   0.00000   |    0.19852  -0.09056   0.01232    |
 |   194    0.30000  -0.05000   0.00000   |    0.29778  -0.09056   0.01847    |
 |   195    0.40000  -0.05000   0.00000   |    0.39704  -0.09056   0.02463    |
 |   196    0.50000  -0.05000   0.00000   |    0.49630  -0.09056   0.03079    |
 |   197   -0.40000  -0.05000   0.00000   |   -0.39704  -0.09056  -0.02463    |
 |   198   -0.30000  -0.05000   0.00000   |   -0.29778  -0.09056  -0.01847    |
 |   199   -0.20000  -0.05000   0.00000   |   -0.19852  -0.09056  -0.01232    |
 |   200   -0.10000  -0.05000   0.00000   |   -0.09926  -0.09056  -0.00616    |
 |   201    0.00000   0.00000   0.20000   |    0.00000   0.00000   0.09084    |
 |   202    0.10000   0.00000   0.20000   |    0.09926   0.00000   0.09700    |
 |   203    0.20000   0.00000   0.20000   |    0.19852   0.00000   0.10316    |
 |   204    0.30000   0.00000   0.20000   |    0.29778   0.00000   0.10931    |
 |   205    0.40000   0.00000   0.20000   |    0.39704   0.00000   0.11547    |
 |   206    0.50000   0.00000   0.20000   |    0.49630   0.00000   0.12163    |
 |   207   -0.40000   0.00000   0.20000   |   -0.39704   0.00000   0.06621    |
 |   208   -0.30000   0.00000   0.20000   |   -0.29778   0.00000   0.07237    |
 |   209   -0.20000   0.00000   0.20000   |   -0.19852   0.00000   0.07852    |
 |   210   -0.10000   0.00000   0.20000   |   -0.09926   0.00000   0.08468    |
 |   211    0.00000   0.05000   0.20000   |    0.00000   0.09056   0.09084    |
 |   212    0.10000   0.05000   0.20000   |    0.09926   0.09056   0.09700    |
 |   213    0.20000   0.05000   0.20000   |    0.19852   0.09056   0.10316    |
 |   214    0.30000   0.05000   0.20000   |    0.29778   0.09056   0.10931    |
 |   215    0.40000   0.05000   0.20000   |    0.39704   0.09056   0.11547    |
 |   216    0.50000   0.05000   0.20000   |    0.49630   0.09056   0.12163    |
 |   217   -0.40000   0.05000   0.20000   |   -0.39704   0.09056   0.06621    |
 |   218   -0.30000   0.05000   0.20000   |   -0.29778   0.09056   0.07237    |
 |   219   -0.20000   0.05000   0.20000   |   -0.19852   0.09056   0.07852    |
 |   220   -0.10000   0.05000   0.20000   |   -0.09926   0.09056   0.08468    |
 |   221    0.00000   0.10000   0.20000   |    0.00000   0.18112   0.09084    |
 |   222    0.10000   0.10000   0.20000   |    0.09926   0.18112   0.09700    |
 |   223    0.20000   0.10000   0.20000   |    0.19852   0.18112   0.10316    |
 |   224    0.30000   0.10000   0.20000   |    0.29778   0.18112   0.10931    |
 |   225    0.40000   0.10000   0.20000   |    0.39704   0.18112   0.11547    |
 |   226    0.50000   0.10000   0.20000   |    0.49630   0.18112   0.12163    |
 |   227   -0.40000   0.10000   0.20000   |   -0.39704   0.18112   0.06621    |
 |   228   -0.30000   0.10000   0.20000   |   -0.29778   0.18112   0.07237    |
 |   229   -0.20000   0.10000   0.20000   |   -0.19852   0.18112   0.07852    |
 |   230   -0.10000   0.10000   0.20000   |   -0.09926   0.18112   0.08468    |
 |   231    0.00000   0.15000   0.20000   |    0.00000   0.27169   0.09084    |
 |   232    0.10000   0.15000   0.20000   |    0.09926   0.27169   0.09700    |
 |   233    0.20000   0.15000   0.20000   |    0.19852   0.27169   0.10316    |
 |   234    0.30000   0.15000   0.20000   |    0.29778   0.27169   0.10931    |
 |   235    0.40000   0.15000   0.20000   |    0.39704   0.27169   0.11547    |
 |   236    0.50000   0.15000   0.20000   |    0.49630   0.27169   0.12163    |
 |   237   -0.40000   0.15000   0.20000   |   -0.39704   0.27169   0.06621    |
 |   238   -0.30000   0.15000   0.20000   |   -0.29778   0.27169   0.07237    |
 |   239   -0.20000   0.15000   0.20000   |   -0.19852   0.27169   0.07852    |
 |   240   -0.10000   0.15000   0.20000   |   -0.09926   0.27169   0.08468    |
 |   241    0.00000   0.20000   0.20000   |    0.00000   0.36225   0.09084    |
 |   242    0.10000   0.20000   0.20000   |    0.09926   0.36225   0.09700    |
 |   243    0.20000   0.20000   0.20000   |    0.19852   0.36225   0.10316    |
 |   244    0.30000   0.20000   0.20000   |    0.29778   0.36225   0.10931    |
 |   245    0.40000   0.20000   0.20000   |    0.39704   0.36225   0.11547    |
 |   246    0.50000   0.20000   0.20000   |    0.49630   0.36225   0.12163    |
 |   247   -0.40000   0.20000   0.20000   |   -0.39704   0.36225   0.06621    |
 |   248   -0.30000   0.20000   0.20000   |   -0.29778   0.36225   0.07237    |
 |   249   -0.20000   0.20000   0.20000   |   -0.19852   0.36225   0.07852    |
 |   250   -0.10000   0.20000   0.20000   |   -0.09926   0.36225   0.08468    |
 |   251    0.00000   0.25000   0.20000   |    0.00000   0.45281   0.09084    |
 |   252    0.10000   0.25000   0.20000   |    0.09926   0.45281   0.09700    |
 |   253    0.20000   0.25000   0.20000   |    0.19852   0.45281   0.10316    |
 |   254    0.30000   0.25000   0.20000   |    0.29778   0.45281   0.10931    |
 |   255    0.40000   0.25000   0.20000   |    0.39704   0.45281   0.11547    |
 |   256    0.50000   0.25000   0.20000   |    0.49630   0.45281   0.12163    |
 |   257   -0.40000   0.25000   0.20000   |   -0.39704   0.45281   0.06621    |
 |   258   -0.30000   0.25000   0.20000   |   -0.29778   0.45281   0.07237    |
 |   259   -0.20000   0.25000   0.20000   |   -0.19852   0.45281   0.07852    |
 |   260   -0.10000   0.25000   0.20000   |   -0.09926   0.45281   0.08468    |
 |   261    0.00000   0.30000   0.20000   |    0.00000   0.54337   0.09084    |
 |   262    0.10000   0.30000   0.20000   |    0.09926   0.54337   0.09700    |
 |   263    0.20000   0.30000   0.20000   |    0.19852   0.54337   0.10316    |
 |   264    0.30000   0.30000   0.20000   |    0.29778   0.54337   0.10931    |
 |   265    0.40000   0.30000   0.20000   |    0.39704   0.54337   0.11547    |
 |   266    0.50000   0.30000   0.20000   |    0.49630   0.54337   0.12163    |
 |   267   -0.40000   0.30000   0.20000   |   -0.39704   0.54337   0.06621    |
 |   268   -0.30000   0.30000   0.20000   |   -0.29778   0.54337   0.07237    |
 |   269   -0.20000   0.30000   0.20000   |   -0.19852   0.54337   0.07852    |
 |   270   -0.10000   0.30000   0.20000   |   -0.09926   0.54337   0.08468    |
 |   271    0.00000   0.35000   0.20000   |    0.00000   0.63393   0.09084    |
 |   272    0.10000   0.35000   0.20000   |    0.09926   0.63393   0.09700    |
 |   273    0.20000   0.35000   0.20000   |    0.19852   0.63393   0.10316    |
 |   274    0.30000   0.35000   0.20000   |    0.29778   0.63393   0.10931    |
 |   275    0.40000   0.35000   0.20000   |    0.39704   0.63393   0.11547    |
 |   276    0.50000   0.35000   0.20000   |    0.49630   0.63393   0.12163    |
 |   277   -0.40000   0.35000   0.20000   |   -0.39704   0.63393   0.06621    |
 |   278   -0.30000   0.35000   0.20000   |   -0.29778   0.63393   0.07237    |
 |   279   -0.20000   0.35000   0.20000   |   -0.19852   0.63393   0.07852    |
 |   280   -0.10000   0.35000   0.20000   |   -0.09926   0.63393   0.08468    |
 |   281    0.00000   0.40000   0.20000   |    0.00000   0.72450   0.09084    |
 |   282    0.10000   0.40000   0.20000   |    0.09926   0.72450   0.09700    |
 |   283    0.20000   0.40000   0.20000   |    0.19852   0.72450   0.10316    |
 |   284    0.30000   0.40000   0.20000   |    0.29778   0.72450   0.10931    |
 |   285    0.40000   0.40000   0.20000   |    0.39704   0.72450   0.11547    |
 |   286    0.50000   0.40000   0.20000   |    0.49630   0.72450   0.12163    |
 |   287   -0.40000   0.40000   0.20000   |   -0.39704   0.72450   0.06621    |
 |   288   -0.30000   0.40000   0.20000   |   -0.29778   0.72450   0.07237    |
 |   289   -0.20000   0.40000   0.20000   |   -0.19852   0.72450   0.07852    |
 |   290   -0.10000   0.40000   0.20000   |   -0.09926   0.72450   0.08468    |
 |   291    0.00000   0.45000   0.20000   |    0.00000   0.81506   0.09084    |
 |   292    0.10000   0.45000   0.20000   |    0.09926   0.81506   0.09700    |
 |   293    0.20000   0.45000   0.20000   |    0.19852   0.81506   0.10316    |
 |   294    0.30000   0.45000   0.20000   |    0.29778   0.81506   0.10931    |
 |   295    0.40000   0.45000   0.20000   |    0.39704   0.81506   0.11547    |
 |   296    0.50000   0.45000   0.20000   |    0.49630   0.81506   0.12163    |
 |   297   -0.40000   0.45000   0.20000   |   -0.39704   0.81506   0.06621    |
 |   298   -0.30000   0.45000   0.20000   |   -0.29778   0.81506   0.07237    |
 |   299   -0.20000   0.45000   0.20000   |   -0.19852   0.81506   0.07852    |
 |   300   -0.10000   0.45000   0.20000   |   -0.09926   0.81506   0.08468    |
 |   301    0.00000   0.50000   0.20000   |    0.00000   0.90562   0.09084    |
 |   302    0.10000   0.50000   0.20000   |    0.09926   0.90562   0.09700    |
 |   303    0.20000   0.50000   0.20000   |    0.19852   0.90562   0.10316    |
 |   304    0.30000   0.50000   0.20000   |    0.29778   0.90562   0.10931    |
 |   305    0.40000   0.50000   0.20000   |    0.39704   0.90562   0.11547    |
 |   306    0.50000   0.50000   0.20000   |    0.49630   0.90562   0.12163    |
 |   307   -0.40000   0.50000   0.20000   |   -0.39704   0.90562   0.06621    |
 |   308   -0.30000   0.50000   0.20000   |   -0.29778   0.90562   0.07237    |
 |   309   -0.20000   0.50000   0.20000   |   -0.19852   0.90562   0.07852    |
 |   310   -0.10000   0.50000   0.20000   |   -0.09926   0.90562   0.08468    |
 |   311    0.00000  -0.45000   0.20000   |    0.00000  -0.81506   0.09084    |
 |   312    0.10000  -0.45000   0.20000   |    0.09926  -0.81506   0.09700    |
 |   313    0.20000  -0.45000   0.20000   |    0.19852  -0.81506   0.10316    |
 |   314    0.30000  -0.45000   0.20000   |    0.29778  -0.81506   0.10931    |
 |   315    0.40000  -0.45000   0.20000   |    0.39704  -0.81506   0.11547    |
 |   316    0.50000  -0.45000   0.20000   |    0.49630  -0.81506   0.12163    |
 |   317   -0.40000  -0.45000   0.20000   |   -0.39704  -0.81506   0.06621    |
 |   318   -0.30000  -0.45000   0.20000   |   -0.29778  -0.81506   0.07237    |
 |   319   -0.20000  -0.45000   0.20000   |   -0.19852  -0.81506   0.07852    |
 |   320   -0.10000  -0.45000   0.20000   |   -0.09926  -0.81506   0.08468    |
 |   321    0.00000  -0.40000   0.20000   |    0.00000  -0.72450   0.09084    |
 |   322    0.10000  -0.40000   0.20000   |    0.09926  -0.72450   0.09700    |
 |   323    0.20000  -0.40000   0.20000   |    0.19852  -0.72450   0.10316    |
 |   324    0.30000  -0.40000   0.20000   |    0.29778  -0.72450   0.10931    |
 |   325    0.40000  -0.40000   0.20000   |    0.39704  -0.72450   0.11547    |
 |   326    0.50000  -0.40000   0.20000   |    0.49630  -0.72450   0.12163    |
 |   327   -0.40000  -0.40000   0.20000   |   -0.39704  -0.72450   0.06621    |
 |   328   -0.30000  -0.40000   0.20000   |   -0.29778  -0.72450   0.07237    |
 |   329   -0.20000  -0.40000   0.20000   |   -0.19852  -0.72450   0.07852    |
 |   330   -0.10000  -0.40000   0.20000   |   -0.09926  -0.72450   0.08468    |
 |   331    0.00000  -0.35000   0.20000   |    0.00000  -0.63393   0.09084    |
 |   332    0.10000  -0.35000   0.20000   |    0.09926  -0.63393   0.09700    |
 |   333    0.20000  -0.35000   0.20000   |    0.19852  -0.63393   0.10316    |
 |   334    0.30000  -0.35000   0.20000   |    0.29778  -0.63393   0.10931    |
 |   335    0.40000  -0.35000   0.20000   |    0.39704  -0.63393   0.11547    |
 |   336    0.50000  -0.35000   0.20000   |    0.49630  -0.63393   0.12163    |
 |   337   -0.40000  -0.35000   0.20000   |   -0.39704  -0.63393   0.06621    |
 |   338   -0.30000  -0.35000   0.20000   |   -0.29778  -0.63393   0.07237    |
 |   339   -0.20000  -0.35000   0.20000   |   -0.19852  -0.63393   0.07852    |
 |   340   -0.10000  -0.35000   0.20000   |   -0.09926  -0.63393   0.08468    |
 |   341    0.00000  -0.30000   0.20000   |    0.00000  -0.54337   0.09084    |
 |   342    0.10000  -0.30000   0.20000   |    0.09926  -0.54337   0.09700    |
 |   343    0.20000  -0.30000   0.20000   |    0.19852  -0.54337   0.10316    |
 |   344    0.30000  -0.30000   0.20000   |    0.29778  -0.54337   0.10931    |
 |   345    0.40000  -0.30000   0.20000   |    0.39704  -0.54337   0.11547    |
 |   346    0.50000  -0.30000   0.20000   |    0.49630  -0.54337   0.12163    |
 |   347   -0.40000  -0.30000   0.20000   |   -0.39704  -0.54337   0.06621    |
 |   348   -0.30000  -0.30000   0.20000   |   -0.29778  -0.54337   0.07237    |
 |   349   -0.20000  -0.30000   0.20000   |   -0.19852  -0.54337   0.07852    |
 |   350   -0.10000  -0.30000   0.20000   |   -0.09926  -0.54337   0.08468    |
 |   351    0.00000  -0.25000   0.20000   |    0.00000  -0.45281   0.09084    |
 |   352    0.10000  -0.25000   0.20000   |    0.09926  -0.45281   0.09700    |
 |   353    0.20000  -0.25000   0.20000   |    0.19852  -0.45281   0.10316    |
 |   354    0.30000  -0.25000   0.20000   |    0.29778  -0.45281   0.10931    |
 |   355    0.40000  -0.25000   0.20000   |    0.39704  -0.45281   0.11547    |
 |   356    0.50000  -0.25000   0.20000   |    0.49630  -0.45281   0.12163    |
 |   357   -0.40000  -0.25000   0.20000   |   -0.39704  -0.45281   0.06621    |
 |   358   -0.30000  -0.25000   0.20000   |   -0.29778  -0.45281   0.07237    |
 |   359   -0.20000  -0.25000   0.20000   |   -0.19852  -0.45281   0.07852    |
 |   360   -0.10000  -0.25000   0.20000   |   -0.09926  -0.45281   0.08468    |
 |   361    0.00000  -0.20000   0.20000   |    0.00000  -0.36225   0.09084    |
 |   362    0.10000  -0.20000   0.20000   |    0.09926  -0.36225   0.09700    |
 |   363    0.20000  -0.20000   0.20000   |    0.19852  -0.36225   0.10316    |
 |   364    0.30000  -0.20000   0.20000   |    0.29778  -0.36225   0.10931    |
 |   365    0.40000  -0.20000   0.20000   |    0.39704  -0.36225   0.11547    |
 |   366    0.50000  -0.20000   0.20000   |    0.49630  -0.36225   0.12163    |
 |   367   -0.40000  -0.20000   0.20000   |   -0.39704  -0.36225   0.06621    |
 |   368   -0.30000  -0.20000   0.20000   |   -0.29778  -0.36225   0.07237    |
 |   369   -0.20000  -0.20000   0.20000   |   -0.19852  -0.36225   0.07852    |
 |   370   -0.10000  -0.20000   0.20000   |   -0.09926  -0.36225   0.08468    |
 |   371    0.00000  -0.15000   0.20000   |    0.00000  -0.27169   0.09084    |
 |   372    0.10000  -0.15000   0.20000   |    0.09926  -0.27169   0.09700    |
 |   373    0.20000  -0.15000   0.20000   |    0.19852  -0.27169   0.10316    |
 |   374    0.30000  -0.15000   0.20000   |    0.29778  -0.27169   0.10931    |
 |   375    0.40000  -0.15000   0.20000   |    0.39704  -0.27169   0.11547    |
 |   376    0.50000  -0.15000   0.20000   |    0.49630  -0.27169   0.12163    |
 |   377   -0.40000  -0.15000   0.20000   |   -0.39704  -0.27169   0.06621    |
 |   378   -0.30000  -0.15000   0.20000   |   -0.29778  -0.27169   0.07237    |
 |   379   -0.20000  -0.15000   0.20000   |   -0.19852  -0.27169   0.07852    |
 |   380   -0.10000  -0.15000   0.20000   |   -0.09926  -0.27169   0.08468    |
 |   381    0.00000  -0.10000   0.20000   |    0.00000  -0.18112   0.09084    |
 |   382    0.10000  -0.10000   0.20000   |    0.09926  -0.18112   0.09700    |
 |   383    0.20000  -0.10000   0.20000   |    0.19852  -0.18112   0.10316    |
 |   384    0.30000  -0.10000   0.20000   |    0.29778  -0.18112   0.10931    |
 |   385    0.40000  -0.10000   0.20000   |    0.39704  -0.18112   0.11547    |
 |   386    0.50000  -0.10000   0.20000   |    0.49630  -0.18112   0.12163    |
 |   387   -0.40000  -0.10000   0.20000   |   -0.39704  -0.18112   0.06621    |
 |   388   -0.30000  -0.10000   0.20000   |   -0.29778  -0.18112   0.07237    |
 |   389   -0.20000  -0.10000   0.20000   |   -0.19852  -0.18112   0.07852    |
 |   390   -0.10000  -0.10000   0.20000   |   -0.09926  -0.18112   0.08468    |
 |   391    0.00000  -0.05000   0.20000   |    0.00000  -0.09056   0.09084    |
 |   392    0.10000  -0.05000   0.20000   |    0.09926  -0.09056   0.09700    |
 |   393    0.20000  -0.05000   0.20000   |    0.19852  -0.09056   0.10316    |
 |   394    0.30000  -0.05000   0.20000   |    0.29778  -0.09056   0.10931    |
 |   395    0.40000  -0.05000   0.20000   |    0.39704  -0.09056   0.11547    |
 |   396    0.50000  -0.05000   0.20000   |    0.49630  -0.09056   0.12163    |
 |   397   -0.40000  -0.05000   0.20000   |   -0.39704  -0.09056   0.06621    |
 |   398   -0.30000  -0.05000   0.20000   |   -0.29778  -0.09056   0.07237    |
 |   399   -0.20000  -0.05000   0.20000   |   -0.19852  -0.09056   0.07852    |
 |   400   -0.10000  -0.05000   0.20000   |   -0.09926  -0.09056   0.08468    |
 |   401    0.00000   0.00000   0.40000   |    0.00000   0.00000   0.18168    |
 |   402    0.10000   0.00000   0.40000   |    0.09926   0.00000   0.18784    |
 |   403    0.20000   0.00000   0.40000   |    0.19852   0.00000   0.19400    |
 |   404    0.30000   0.00000   0.40000   |    0.29778   0.00000   0.20016    |
 |   405    0.40000   0.00000   0.40000   |    0.39704   0.00000   0.20631    |
 |   406    0.50000   0.00000   0.40000   |    0.49630   0.00000   0.21247    |
 |   407   -0.40000   0.00000   0.40000   |   -0.39704   0.00000   0.15705    |
 |   408   -0.30000   0.00000   0.40000   |   -0.29778   0.00000   0.16321    |
 |   409   -0.20000   0.00000   0.40000   |   -0.19852   0.00000   0.16937    |
 |   410   -0.10000   0.00000   0.40000   |   -0.09926   0.00000   0.17552    |
 |   411    0.00000   0.05000   0.40000   |    0.00000   0.09056   0.18168    |
 |   412    0.10000   0.05000   0.40000   |    0.09926   0.09056   0.18784    |
 |   413    0.20000   0.05000   0.40000   |    0.19852   0.09056   0.19400    |
 |   414    0.30000   0.05000   0.40000   |    0.29778   0.09056   0.20016    |
 |   415    0.40000   0.05000   0.40000   |    0.39704   0.09056   0.20631    |
 |   416    0.50000   0.05000   0.40000   |    0.49630   0.09056   0.21247    |
 |   417   -0.40000   0.05000   0.40000   |   -0.39704   0.09056   0.15705    |
 |   418   -0.30000   0.05000   0.40000   |   -0.29778   0.09056   0.16321    |
 |   419   -0.20000   0.05000   0.40000   |   -0.19852   0.09056   0.16937    |
 |   420   -0.10000   0.05000   0.40000   |   -0.09926   0.09056   0.17552    |
 |   421    0.00000   0.10000   0.40000   |    0.00000   0.18112   0.18168    |
 |   422    0.10000   0.10000   0.40000   |    0.09926   0.18112   0.18784    |
 |   423    0.20000   0.10000   0.40000   |    0.19852   0.18112   0.19400    |
 |   424    0.30000   0.10000   0.40000   |    0.29778   0.18112   0.20016    |
 |   425    0.40000   0.10000   0.40000   |    0.39704   0.18112   0.20631    |
 |   426    0.50000   0.10000   0.40000   |    0.49630   0.18112   0.21247    |
 |   427   -0.40000   0.10000   0.40000   |   -0.39704   0.18112   0.15705    |
 |   428   -0.30000   0.10000   0.40000   |   -0.29778   0.18112   0.16321    |
 |   429   -0.20000   0.10000   0.40000   |   -0.19852   0.18112   0.16937    |
 |   430   -0.10000   0.10000   0.40000   |   -0.09926   0.18112   0.17552    |
 |   431    0.00000   0.15000   0.40000   |    0.00000   0.27169   0.18168    |
 |   432    0.10000   0.15000   0.40000   |    0.09926   0.27169   0.18784    |
 |   433    0.20000   0.15000   0.40000   |    0.19852   0.27169   0.19400    |
 |   434    0.30000   0.15000   0.40000   |    0.29778   0.27169   0.20016    |
 |   435    0.40000   0.15000   0.40000   |    0.39704   0.27169   0.20631    |
 |   436    0.50000   0.15000   0.40000   |    0.49630   0.27169   0.21247    |
 |   437   -0.40000   0.15000   0.40000   |   -0.39704   0.27169   0.15705    |
 |   438   -0.30000   0.15000   0.40000   |   -0.29778   0.27169   0.16321    |
 |   439   -0.20000   0.15000   0.40000   |   -0.19852   0.27169   0.16937    |
 |   440   -0.10000   0.15000   0.40000   |   -0.09926   0.27169   0.17552    |
 |   441    0.00000   0.20000   0.40000   |    0.00000   0.36225   0.18168    |
 |   442    0.10000   0.20000   0.40000   |    0.09926   0.36225   0.18784    |
 |   443    0.20000   0.20000   0.40000   |    0.19852   0.36225   0.19400    |
 |   444    0.30000   0.20000   0.40000   |    0.29778   0.36225   0.20016    |
 |   445    0.40000   0.20000   0.40000   |    0.39704   0.36225   0.20631    |
 |   446    0.50000   0.20000   0.40000   |    0.49630   0.36225   0.21247    |
 |   447   -0.40000   0.20000   0.40000   |   -0.39704   0.36225   0.15705    |
 |   448   -0.30000   0.20000   0.40000   |   -0.29778   0.36225   0.16321    |
 |   449   -0.20000   0.20000   0.40000   |   -0.19852   0.36225   0.16937    |
 |   450   -0.10000   0.20000   0.40000   |   -0.09926   0.36225   0.17552    |
 |   451    0.00000   0.25000   0.40000   |    0.00000   0.45281   0.18168    |
 |   452    0.10000   0.25000   0.40000   |    0.09926   0.45281   0.18784    |
 |   453    0.20000   0.25000   0.40000   |    0.19852   0.45281   0.19400    |
 |   454    0.30000   0.25000   0.40000   |    0.29778   0.45281   0.20016    |
 |   455    0.40000   0.25000   0.40000   |    0.39704   0.45281   0.20631    |
 |   456    0.50000   0.25000   0.40000   |    0.49630   0.45281   0.21247    |
 |   457   -0.40000   0.25000   0.40000   |   -0.39704   0.45281   0.15705    |
 |   458   -0.30000   0.25000   0.40000   |   -0.29778   0.45281   0.16321    |
 |   459   -0.20000   0.25000   0.40000   |   -0.19852   0.45281   0.16937    |
 |   460   -0.10000   0.25000   0.40000   |   -0.09926   0.45281   0.17552    |
 |   461    0.00000   0.30000   0.40000   |    0.00000   0.54337   0.18168    |
 |   462    0.10000   0.30000   0.40000   |    0.09926   0.54337   0.18784    |
 |   463    0.20000   0.30000   0.40000   |    0.19852   0.54337   0.19400    |
 |   464    0.30000   0.30000   0.40000   |    0.29778   0.54337   0.20016    |
 |   465    0.40000   0.30000   0.40000   |    0.39704   0.54337   0.20631    |
 |   466    0.50000   0.30000   0.40000   |    0.49630   0.54337   0.21247    |
 |   467   -0.40000   0.30000   0.40000   |   -0.39704   0.54337   0.15705    |
 |   468   -0.30000   0.30000   0.40000   |   -0.29778   0.54337   0.16321    |
 |   469   -0.20000   0.30000   0.40000   |   -0.19852   0.54337   0.16937    |
 |   470   -0.10000   0.30000   0.40000   |   -0.09926   0.54337   0.17552    |
 |   471    0.00000   0.35000   0.40000   |    0.00000   0.63393   0.18168    |
 |   472    0.10000   0.35000   0.40000   |    0.09926   0.63393   0.18784    |
 |   473    0.20000   0.35000   0.40000   |    0.19852   0.63393   0.19400    |
 |   474    0.30000   0.35000   0.40000   |    0.29778   0.63393   0.20016    |
 |   475    0.40000   0.35000   0.40000   |    0.39704   0.63393   0.20631    |
 |   476    0.50000   0.35000   0.40000   |    0.49630   0.63393   0.21247    |
 |   477   -0.40000   0.35000   0.40000   |   -0.39704   0.63393   0.15705    |
 |   478   -0.30000   0.35000   0.40000   |   -0.29778   0.63393   0.16321    |
 |   479   -0.20000   0.35000   0.40000   |   -0.19852   0.63393   0.16937    |
 |   480   -0.10000   0.35000   0.40000   |   -0.09926   0.63393   0.17552    |
 |   481    0.00000   0.40000   0.40000   |    0.00000   0.72450   0.18168    |
 |   482    0.10000   0.40000   0.40000   |    0.09926   0.72450   0.18784    |
 |   483    0.20000   0.40000   0.40000   |    0.19852   0.72450   0.19400    |
 |   484    0.30000   0.40000   0.40000   |    0.29778   0.72450   0.20016    |
 |   485    0.40000   0.40000   0.40000   |    0.39704   0.72450   0.20631    |
 |   486    0.50000   0.40000   0.40000   |    0.49630   0.72450   0.21247    |
 |   487   -0.40000   0.40000   0.40000   |   -0.39704   0.72450   0.15705    |
 |   488   -0.30000   0.40000   0.40000   |   -0.29778   0.72450   0.16321    |
 |   489   -0.20000   0.40000   0.40000   |   -0.19852   0.72450   0.16937    |
 |   490   -0.10000   0.40000   0.40000   |   -0.09926   0.72450   0.17552    |
 |   491    0.00000   0.45000   0.40000   |    0.00000   0.81506   0.18168    |
 |   492    0.10000   0.45000   0.40000   |    0.09926   0.81506   0.18784    |
 |   493    0.20000   0.45000   0.40000   |    0.19852   0.81506   0.19400    |
 |   494    0.30000   0.45000   0.40000   |    0.29778   0.81506   0.20016    |
 |   495    0.40000   0.45000   0.40000   |    0.39704   0.81506   0.20631    |
 |   496    0.50000   0.45000   0.40000   |    0.49630   0.81506   0.21247    |
 |   497   -0.40000   0.45000   0.40000   |   -0.39704   0.81506   0.15705    |
 |   498   -0.30000   0.45000   0.40000   |   -0.29778   0.81506   0.16321    |
 |   499   -0.20000   0.45000   0.40000   |   -0.19852   0.81506   0.16937    |
 |   500   -0.10000   0.45000   0.40000   |   -0.09926   0.81506   0.17552    |
 |   501    0.00000   0.50000   0.40000   |    0.00000   0.90562   0.18168    |
 |   502    0.10000   0.50000   0.40000   |    0.09926   0.90562   0.18784    |
 |   503    0.20000   0.50000   0.40000   |    0.19852   0.90562   0.19400    |
 |   504    0.30000   0.50000   0.40000   |    0.29778   0.90562   0.20016    |
 |   505    0.40000   0.50000   0.40000   |    0.39704   0.90562   0.20631    |
 |   506    0.50000   0.50000   0.40000   |    0.49630   0.90562   0.21247    |
 |   507   -0.40000   0.50000   0.40000   |   -0.39704   0.90562   0.15705    |
 |   508   -0.30000   0.50000   0.40000   |   -0.29778   0.90562   0.16321    |
 |   509   -0.20000   0.50000   0.40000   |   -0.19852   0.90562   0.16937    |
 |   510   -0.10000   0.50000   0.40000   |   -0.09926   0.90562   0.17552    |
 |   511    0.00000  -0.45000   0.40000   |    0.00000  -0.81506   0.18168    |
 |   512    0.10000  -0.45000   0.40000   |    0.09926  -0.81506   0.18784    |
 |   513    0.20000  -0.45000   0.40000   |    0.19852  -0.81506   0.19400    |
 |   514    0.30000  -0.45000   0.40000   |    0.29778  -0.81506   0.20016    |
 |   515    0.40000  -0.45000   0.40000   |    0.39704  -0.81506   0.20631    |
 |   516    0.50000  -0.45000   0.40000   |    0.49630  -0.81506   0.21247    |
 |   517   -0.40000  -0.45000   0.40000   |   -0.39704  -0.81506   0.15705    |
 |   518   -0.30000  -0.45000   0.40000   |   -0.29778  -0.81506   0.16321    |
 |   519   -0.20000  -0.45000   0.40000   |   -0.19852  -0.81506   0.16937    |
 |   520   -0.10000  -0.45000   0.40000   |   -0.09926  -0.81506   0.17552    |
 |   521    0.00000  -0.40000   0.40000   |    0.00000  -0.72450   0.18168    |
 |   522    0.10000  -0.40000   0.40000   |    0.09926  -0.72450   0.18784    |
 |   523    0.20000  -0.40000   0.40000   |    0.19852  -0.72450   0.19400    |
 |   524    0.30000  -0.40000   0.40000   |    0.29778  -0.72450   0.20016    |
 |   525    0.40000  -0.40000   0.40000   |    0.39704  -0.72450   0.20631    |
 |   526    0.50000  -0.40000   0.40000   |    0.49630  -0.72450   0.21247    |
 |   527   -0.40000  -0.40000   0.40000   |   -0.39704  -0.72450   0.15705    |
 |   528   -0.30000  -0.40000   0.40000   |   -0.29778  -0.72450   0.16321    |
 |   529   -0.20000  -0.40000   0.40000   |   -0.19852  -0.72450   0.16937    |
 |   530   -0.10000  -0.40000   0.40000   |   -0.09926  -0.72450   0.17552    |
 |   531    0.00000  -0.35000   0.40000   |    0.00000  -0.63393   0.18168    |
 |   532    0.10000  -0.35000   0.40000   |    0.09926  -0.63393   0.18784    |
 |   533    0.20000  -0.35000   0.40000   |    0.19852  -0.63393   0.19400    |
 |   534    0.30000  -0.35000   0.40000   |    0.29778  -0.63393   0.20016    |
 |   535    0.40000  -0.35000   0.40000   |    0.39704  -0.63393   0.20631    |
 |   536    0.50000  -0.35000   0.40000   |    0.49630  -0.63393   0.21247    |
 |   537   -0.40000  -0.35000   0.40000   |   -0.39704  -0.63393   0.15705    |
 |   538   -0.30000  -0.35000   0.40000   |   -0.29778  -0.63393   0.16321    |
 |   539   -0.20000  -0.35000   0.40000   |   -0.19852  -0.63393   0.16937    |
 |   540   -0.10000  -0.35000   0.40000   |   -0.09926  -0.63393   0.17552    |
 |   541    0.00000  -0.30000   0.40000   |    0.00000  -0.54337   0.18168    |
 |   542    0.10000  -0.30000   0.40000   |    0.09926  -0.54337   0.18784    |
 |   543    0.20000  -0.30000   0.40000   |    0.19852  -0.54337   0.19400    |
 |   544    0.30000  -0.30000   0.40000   |    0.29778  -0.54337   0.20016    |
 |   545    0.40000  -0.30000   0.40000   |    0.39704  -0.54337   0.20631    |
 |   546    0.50000  -0.30000   0.40000   |    0.49630  -0.54337   0.21247    |
 |   547   -0.40000  -0.30000   0.40000   |   -0.39704  -0.54337   0.15705    |
 |   548   -0.30000  -0.30000   0.40000   |   -0.29778  -0.54337   0.16321    |
 |   549   -0.20000  -0.30000   0.40000   |   -0.19852  -0.54337   0.16937    |
 |   550   -0.10000  -0.30000   0.40000   |   -0.09926  -0.54337   0.17552    |
 |   551    0.00000  -0.25000   0.40000   |    0.00000  -0.45281   0.18168    |
 |   552    0.10000  -0.25000   0.40000   |    0.09926  -0.45281   0.18784    |
 |   553    0.20000  -0.25000   0.40000   |    0.19852  -0.45281   0.19400    |
 |   554    0.30000  -0.25000   0.40000   |    0.29778  -0.45281   0.20016    |
 |   555    0.40000  -0.25000   0.40000   |    0.39704  -0.45281   0.20631    |
 |   556    0.50000  -0.25000   0.40000   |    0.49630  -0.45281   0.21247    |
 |   557   -0.40000  -0.25000   0.40000   |   -0.39704  -0.45281   0.15705    |
 |   558   -0.30000  -0.25000   0.40000   |   -0.29778  -0.45281   0.16321    |
 |   559   -0.20000  -0.25000   0.40000   |   -0.19852  -0.45281   0.16937    |
 |   560   -0.10000  -0.25000   0.40000   |   -0.09926  -0.45281   0.17552    |
 |   561    0.00000  -0.20000   0.40000   |    0.00000  -0.36225   0.18168    |
 |   562    0.10000  -0.20000   0.40000   |    0.09926  -0.36225   0.18784    |
 |   563    0.20000  -0.20000   0.40000   |    0.19852  -0.36225   0.19400    |
 |   564    0.30000  -0.20000   0.40000   |    0.29778  -0.36225   0.20016    |
 |   565    0.40000  -0.20000   0.40000   |    0.39704  -0.36225   0.20631    |
 |   566    0.50000  -0.20000   0.40000   |    0.49630  -0.36225   0.21247    |
 |   567   -0.40000  -0.20000   0.40000   |   -0.39704  -0.36225   0.15705    |
 |   568   -0.30000  -0.20000   0.40000   |   -0.29778  -0.36225   0.16321    |
 |   569   -0.20000  -0.20000   0.40000   |   -0.19852  -0.36225   0.16937    |
 |   570   -0.10000  -0.20000   0.40000   |   -0.09926  -0.36225   0.17552    |
 |   571    0.00000  -0.15000   0.40000   |    0.00000  -0.27169   0.18168    |
 |   572    0.10000  -0.15000   0.40000   |    0.09926  -0.27169   0.18784    |
 |   573    0.20000  -0.15000   0.40000   |    0.19852  -0.27169   0.19400    |
 |   574    0.30000  -0.15000   0.40000   |    0.29778  -0.27169   0.20016    |
 |   575    0.40000  -0.15000   0.40000   |    0.39704  -0.27169   0.20631    |
 |   576    0.50000  -0.15000   0.40000   |    0.49630  -0.27169   0.21247    |
 |   577   -0.40000  -0.15000   0.40000   |   -0.39704  -0.27169   0.15705    |
 |   578   -0.30000  -0.15000   0.40000   |   -0.29778  -0.27169   0.16321    |
 |   579   -0.20000  -0.15000   0.40000   |   -0.19852  -0.27169   0.16937    |
 |   580   -0.10000  -0.15000   0.40000   |   -0.09926  -0.27169   0.17552    |
 |   581    0.00000  -0.10000   0.40000   |    0.00000  -0.18112   0.18168    |
 |   582    0.10000  -0.10000   0.40000   |    0.09926  -0.18112   0.18784    |
 |   583    0.20000  -0.10000   0.40000   |    0.19852  -0.18112   0.19400    |
 |   584    0.30000  -0.10000   0.40000   |    0.29778  -0.18112   0.20016    |
 |   585    0.40000  -0.10000   0.40000   |    0.39704  -0.18112   0.20631    |
 |   586    0.50000  -0.10000   0.40000   |    0.49630  -0.18112   0.21247    |
 |   587   -0.40000  -0.10000   0.40000   |   -0.39704  -0.18112   0.15705    |
 |   588   -0.30000  -0.10000   0.40000   |   -0.29778  -0.18112   0.16321    |
 |   589   -0.20000  -0.10000   0.40000   |   -0.19852  -0.18112   0.16937    |
 |   590   -0.10000  -0.10000   0.40000   |   -0.09926  -0.18112   0.17552    |
 |   591    0.00000  -0.05000   0.40000   |    0.00000  -0.09056   0.18168    |
 |   592    0.10000  -0.05000   0.40000   |    0.09926  -0.09056   0.18784    |
 |   593    0.20000  -0.05000   0.40000   |    0.19852  -0.09056   0.19400    |
 |   594    0.30000  -0.05000   0.40000   |    0.29778  -0.09056   0.20016    |
 |   595    0.40000  -0.05000   0.40000   |    0.39704  -0.09056   0.20631    |
 |   596    0.50000  -0.05000   0.40000   |    0.49630  -0.09056   0.21247    |
 |   597   -0.40000  -0.05000   0.40000   |   -0.39704  -0.09056   0.15705    |
 |   598   -0.30000  -0.05000   0.40000   |   -0.29778  -0.09056   0.16321    |
 |   599   -0.20000  -0.05000   0.40000   |   -0.19852  -0.09056   0.16937    |
 |   600   -0.10000  -0.05000   0.40000   |   -0.09926  -0.09056   0.17552    |
 |   601    0.00000   0.00000  -0.40000   |    0.00000   0.00000  -0.18168    |
 |   602    0.10000   0.00000  -0.40000   |    0.09926   0.00000  -0.17552    |
 |   603    0.20000   0.00000  -0.40000   |    0.19852   0.00000  -0.16937    |
 |   604    0.30000   0.00000  -0.40000   |    0.29778   0.00000  -0.16321    |
 |   605    0.40000   0.00000  -0.40000   |    0.39704   0.00000  -0.15705    |
 |   606    0.50000   0.00000  -0.40000   |    0.49630   0.00000  -0.15089    |
 |   607   -0.40000   0.00000  -0.40000   |   -0.39704   0.00000  -0.20631    |
 |   608   -0.30000   0.00000  -0.40000   |   -0.29778   0.00000  -0.20016    |
 |   609   -0.20000   0.00000  -0.40000   |   -0.19852   0.00000  -0.19400    |
 |   610   -0.10000   0.00000  -0.40000   |   -0.09926   0.00000  -0.18784    |
 |   611    0.00000   0.05000  -0.40000   |    0.00000   0.09056  -0.18168    |
 |   612    0.10000   0.05000  -0.40000   |    0.09926   0.09056  -0.17552    |
 |   613    0.20000   0.05000  -0.40000   |    0.19852   0.09056  -0.16937    |
 |   614    0.30000   0.05000  -0.40000   |    0.29778   0.09056  -0.16321    |
 |   615    0.40000   0.05000  -0.40000   |    0.39704   0.09056  -0.15705    |
 |   616    0.50000   0.05000  -0.40000   |    0.49630   0.09056  -0.15089    |
 |   617   -0.40000   0.05000  -0.40000   |   -0.39704   0.09056  -0.20631    |
 |   618   -0.30000   0.05000  -0.40000   |   -0.29778   0.09056  -0.20016    |
 |   619   -0.20000   0.05000  -0.40000   |   -0.19852   0.09056  -0.19400    |
 |   620   -0.10000   0.05000  -0.40000   |   -0.09926   0.09056  -0.18784    |
 |   621    0.00000   0.10000  -0.40000   |    0.00000   0.18112  -0.18168    |
 |   622    0.10000   0.10000  -0.40000   |    0.09926   0.18112  -0.17552    |
 |   623    0.20000   0.10000  -0.40000   |    0.19852   0.18112  -0.16937    |
 |   624    0.30000   0.10000  -0.40000   |    0.29778   0.18112  -0.16321    |
 |   625    0.40000   0.10000  -0.40000   |    0.39704   0.18112  -0.15705    |
 |   626    0.50000   0.10000  -0.40000   |    0.49630   0.18112  -0.15089    |
 |   627   -0.40000   0.10000  -0.40000   |   -0.39704   0.18112  -0.20631    |
 |   628   -0.30000   0.10000  -0.40000   |   -0.29778   0.18112  -0.20016    |
 |   629   -0.20000   0.10000  -0.40000   |   -0.19852   0.18112  -0.19400    |
 |   630   -0.10000   0.10000  -0.40000   |   -0.09926   0.18112  -0.18784    |
 |   631    0.00000   0.15000  -0.40000   |    0.00000   0.27169  -0.18168    |
 |   632    0.10000   0.15000  -0.40000   |    0.09926   0.27169  -0.17552    |
 |   633    0.20000   0.15000  -0.40000   |    0.19852   0.27169  -0.16937    |
 |   634    0.30000   0.15000  -0.40000   |    0.29778   0.27169  -0.16321    |
 |   635    0.40000   0.15000  -0.40000   |    0.39704   0.27169  -0.15705    |
 |   636    0.50000   0.15000  -0.40000   |    0.49630   0.27169  -0.15089    |
 |   637   -0.40000   0.15000  -0.40000   |   -0.39704   0.27169  -0.20631    |
 |   638   -0.30000   0.15000  -0.40000   |   -0.29778   0.27169  -0.20016    |
 |   639   -0.20000   0.15000  -0.40000   |   -0.19852   0.27169  -0.19400    |
 |   640   -0.10000   0.15000  -0.40000   |   -0.09926   0.27169  -0.18784    |
 |   641    0.00000   0.20000  -0.40000   |    0.00000   0.36225  -0.18168    |
 |   642    0.10000   0.20000  -0.40000   |    0.09926   0.36225  -0.17552    |
 |   643    0.20000   0.20000  -0.40000   |    0.19852   0.36225  -0.16937    |
 |   644    0.30000   0.20000  -0.40000   |    0.29778   0.36225  -0.16321    |
 |   645    0.40000   0.20000  -0.40000   |    0.39704   0.36225  -0.15705    |
 |   646    0.50000   0.20000  -0.40000   |    0.49630   0.36225  -0.15089    |
 |   647   -0.40000   0.20000  -0.40000   |   -0.39704   0.36225  -0.20631    |
 |   648   -0.30000   0.20000  -0.40000   |   -0.29778   0.36225  -0.20016    |
 |   649   -0.20000   0.20000  -0.40000   |   -0.19852   0.36225  -0.19400    |
 |   650   -0.10000   0.20000  -0.40000   |   -0.09926   0.36225  -0.18784    |
 |   651    0.00000   0.25000  -0.40000   |    0.00000   0.45281  -0.18168    |
 |   652    0.10000   0.25000  -0.40000   |    0.09926   0.45281  -0.17552    |
 |   653    0.20000   0.25000  -0.40000   |    0.19852   0.45281  -0.16937    |
 |   654    0.30000   0.25000  -0.40000   |    0.29778   0.45281  -0.16321    |
 |   655    0.40000   0.25000  -0.40000   |    0.39704   0.45281  -0.15705    |
 |   656    0.50000   0.25000  -0.40000   |    0.49630   0.45281  -0.15089    |
 |   657   -0.40000   0.25000  -0.40000   |   -0.39704   0.45281  -0.20631    |
 |   658   -0.30000   0.25000  -0.40000   |   -0.29778   0.45281  -0.20016    |
 |   659   -0.20000   0.25000  -0.40000   |   -0.19852   0.45281  -0.19400    |
 |   660   -0.10000   0.25000  -0.40000   |   -0.09926   0.45281  -0.18784    |
 |   661    0.00000   0.30000  -0.40000   |    0.00000   0.54337  -0.18168    |
 |   662    0.10000   0.30000  -0.40000   |    0.09926   0.54337  -0.17552    |
 |   663    0.20000   0.30000  -0.40000   |    0.19852   0.54337  -0.16937    |
 |   664    0.30000   0.30000  -0.40000   |    0.29778   0.54337  -0.16321    |
 |   665    0.40000   0.30000  -0.40000   |    0.39704   0.54337  -0.15705    |
 |   666    0.50000   0.30000  -0.40000   |    0.49630   0.54337  -0.15089    |
 |   667   -0.40000   0.30000  -0.40000   |   -0.39704   0.54337  -0.20631    |
 |   668   -0.30000   0.30000  -0.40000   |   -0.29778   0.54337  -0.20016    |
 |   669   -0.20000   0.30000  -0.40000   |   -0.19852   0.54337  -0.19400    |
 |   670   -0.10000   0.30000  -0.40000   |   -0.09926   0.54337  -0.18784    |
 |   671    0.00000   0.35000  -0.40000   |    0.00000   0.63393  -0.18168    |
 |   672    0.10000   0.35000  -0.40000   |    0.09926   0.63393  -0.17552    |
 |   673    0.20000   0.35000  -0.40000   |    0.19852   0.63393  -0.16937    |
 |   674    0.30000   0.35000  -0.40000   |    0.29778   0.63393  -0.16321    |
 |   675    0.40000   0.35000  -0.40000   |    0.39704   0.63393  -0.15705    |
 |   676    0.50000   0.35000  -0.40000   |    0.49630   0.63393  -0.15089    |
 |   677   -0.40000   0.35000  -0.40000   |   -0.39704   0.63393  -0.20631    |
 |   678   -0.30000   0.35000  -0.40000   |   -0.29778   0.63393  -0.20016    |
 |   679   -0.20000   0.35000  -0.40000   |   -0.19852   0.63393  -0.19400    |
 |   680   -0.10000   0.35000  -0.40000   |   -0.09926   0.63393  -0.18784    |
 |   681    0.00000   0.40000  -0.40000   |    0.00000   0.72450  -0.18168    |
 |   682    0.10000   0.40000  -0.40000   |    0.09926   0.72450  -0.17552    |
 |   683    0.20000   0.40000  -0.40000   |    0.19852   0.72450  -0.16937    |
 |   684    0.30000   0.40000  -0.40000   |    0.29778   0.72450  -0.16321    |
 |   685    0.40000   0.40000  -0.40000   |    0.39704   0.72450  -0.15705    |
 |   686    0.50000   0.40000  -0.40000   |    0.49630   0.72450  -0.15089    |
 |   687   -0.40000   0.40000  -0.40000   |   -0.39704   0.72450  -0.20631    |
 |   688   -0.30000   0.40000  -0.40000   |   -0.29778   0.72450  -0.20016    |
 |   689   -0.20000   0.40000  -0.40000   |   -0.19852   0.72450  -0.19400    |
 |   690   -0.10000   0.40000  -0.40000   |   -0.09926   0.72450  -0.18784    |
 |   691    0.00000   0.45000  -0.40000   |    0.00000   0.81506  -0.18168    |
 |   692    0.10000   0.45000  -0.40000   |    0.09926   0.81506  -0.17552    |
 |   693    0.20000   0.45000  -0.40000   |    0.19852   0.81506  -0.16937    |
 |   694    0.30000   0.45000  -0.40000   |    0.29778   0.81506  -0.16321    |
 |   695    0.40000   0.45000  -0.40000   |    0.39704   0.81506  -0.15705    |
 |   696    0.50000   0.45000  -0.40000   |    0.49630   0.81506  -0.15089    |
 |   697   -0.40000   0.45000  -0.40000   |   -0.39704   0.81506  -0.20631    |
 |   698   -0.30000   0.45000  -0.40000   |   -0.29778   0.81506  -0.20016    |
 |   699   -0.20000   0.45000  -0.40000   |   -0.19852   0.81506  -0.19400    |
 |   700   -0.10000   0.45000  -0.40000   |   -0.09926   0.81506  -0.18784    |
 |   701    0.00000   0.50000  -0.40000   |    0.00000   0.90562  -0.18168    |
 |   702    0.10000   0.50000  -0.40000   |    0.09926   0.90562  -0.17552    |
 |   703    0.20000   0.50000  -0.40000   |    0.19852   0.90562  -0.16937    |
 |   704    0.30000   0.50000  -0.40000   |    0.29778   0.90562  -0.16321    |
 |   705    0.40000   0.50000  -0.40000   |    0.39704   0.90562  -0.15705    |
 |   706    0.50000   0.50000  -0.40000   |    0.49630   0.90562  -0.15089    |
 |   707   -0.40000   0.50000  -0.40000   |   -0.39704   0.90562  -0.20631    |
 |   708   -0.30000   0.50000  -0.40000   |   -0.29778   0.90562  -0.20016    |
 |   709   -0.20000   0.50000  -0.40000   |   -0.19852   0.90562  -0.19400    |
 |   710   -0.10000   0.50000  -0.40000   |   -0.09926   0.90562  -0.18784    |
 |   711    0.00000  -0.45000  -0.40000   |    0.00000  -0.81506  -0.18168    |
 |   712    0.10000  -0.45000  -0.40000   |    0.09926  -0.81506  -0.17552    |
 |   713    0.20000  -0.45000  -0.40000   |    0.19852  -0.81506  -0.16937    |
 |   714    0.30000  -0.45000  -0.40000   |    0.29778  -0.81506  -0.16321    |
 |   715    0.40000  -0.45000  -0.40000   |    0.39704  -0.81506  -0.15705    |
 |   716    0.50000  -0.45000  -0.40000   |    0.49630  -0.81506  -0.15089    |
 |   717   -0.40000  -0.45000  -0.40000   |   -0.39704  -0.81506  -0.20631    |
 |   718   -0.30000  -0.45000  -0.40000   |   -0.29778  -0.81506  -0.20016    |
 |   719   -0.20000  -0.45000  -0.40000   |   -0.19852  -0.81506  -0.19400    |
 |   720   -0.10000  -0.45000  -0.40000   |   -0.09926  -0.81506  -0.18784    |
 |   721    0.00000  -0.40000  -0.40000   |    0.00000  -0.72450  -0.18168    |
 |   722    0.10000  -0.40000  -0.40000   |    0.09926  -0.72450  -0.17552    |
 |   723    0.20000  -0.40000  -0.40000   |    0.19852  -0.72450  -0.16937    |
 |   724    0.30000  -0.40000  -0.40000   |    0.29778  -0.72450  -0.16321    |
 |   725    0.40000  -0.40000  -0.40000   |    0.39704  -0.72450  -0.15705    |
 |   726    0.50000  -0.40000  -0.40000   |    0.49630  -0.72450  -0.15089    |
 |   727   -0.40000  -0.40000  -0.40000   |   -0.39704  -0.72450  -0.20631    |
 |   728   -0.30000  -0.40000  -0.40000   |   -0.29778  -0.72450  -0.20016    |
 |   729   -0.20000  -0.40000  -0.40000   |   -0.19852  -0.72450  -0.19400    |
 |   730   -0.10000  -0.40000  -0.40000   |   -0.09926  -0.72450  -0.18784    |
 |   731    0.00000  -0.35000  -0.40000   |    0.00000  -0.63393  -0.18168    |
 |   732    0.10000  -0.35000  -0.40000   |    0.09926  -0.63393  -0.17552    |
 |   733    0.20000  -0.35000  -0.40000   |    0.19852  -0.63393  -0.16937    |
 |   734    0.30000  -0.35000  -0.40000   |    0.29778  -0.63393  -0.16321    |
 |   735    0.40000  -0.35000  -0.40000   |    0.39704  -0.63393  -0.15705    |
 |   736    0.50000  -0.35000  -0.40000   |    0.49630  -0.63393  -0.15089    |
 |   737   -0.40000  -0.35000  -0.40000   |   -0.39704  -0.63393  -0.20631    |
 |   738   -0.30000  -0.35000  -0.40000   |   -0.29778  -0.63393  -0.20016    |
 |   739   -0.20000  -0.35000  -0.40000   |   -0.19852  -0.63393  -0.19400    |
 |   740   -0.10000  -0.35000  -0.40000   |   -0.09926  -0.63393  -0.18784    |
 |   741    0.00000  -0.30000  -0.40000   |    0.00000  -0.54337  -0.18168    |
 |   742    0.10000  -0.30000  -0.40000   |    0.09926  -0.54337  -0.17552    |
 |   743    0.20000  -0.30000  -0.40000   |    0.19852  -0.54337  -0.16937    |
 |   744    0.30000  -0.30000  -0.40000   |    0.29778  -0.54337  -0.16321    |
 |   745    0.40000  -0.30000  -0.40000   |    0.39704  -0.54337  -0.15705    |
 |   746    0.50000  -0.30000  -0.40000   |    0.49630  -0.54337  -0.15089    |
 |   747   -0.40000  -0.30000  -0.40000   |   -0.39704  -0.54337  -0.20631    |
 |   748   -0.30000  -0.30000  -0.40000   |   -0.29778  -0.54337  -0.20016    |
 |   749   -0.20000  -0.30000  -0.40000   |   -0.19852  -0.54337  -0.19400    |
 |   750   -0.10000  -0.30000  -0.40000   |   -0.09926  -0.54337  -0.18784    |
 |   751    0.00000  -0.25000  -0.40000   |    0.00000  -0.45281  -0.18168    |
 |   752    0.10000  -0.25000  -0.40000   |    0.09926  -0.45281  -0.17552    |
 |   753    0.20000  -0.25000  -0.40000   |    0.19852  -0.45281  -0.16937    |
 |   754    0.30000  -0.25000  -0.40000   |    0.29778  -0.45281  -0.16321    |
 |   755    0.40000  -0.25000  -0.40000   |    0.39704  -0.45281  -0.15705    |
 |   756    0.50000  -0.25000  -0.40000   |    0.49630  -0.45281  -0.15089    |
 |   757   -0.40000  -0.25000  -0.40000   |   -0.39704  -0.45281  -0.20631    |
 |   758   -0.30000  -0.25000  -0.40000   |   -0.29778  -0.45281  -0.20016    |
 |   759   -0.20000  -0.25000  -0.40000   |   -0.19852  -0.45281  -0.19400    |
 |   760   -0.10000  -0.25000  -0.40000   |   -0.09926  -0.45281  -0.18784    |
 |   761    0.00000  -0.20000  -0.40000   |    0.00000  -0.36225  -0.18168    |
 |   762    0.10000  -0.20000  -0.40000   |    0.09926  -0.36225  -0.17552    |
 |   763    0.20000  -0.20000  -0.40000   |    0.19852  -0.36225  -0.16937    |
 |   764    0.30000  -0.20000  -0.40000   |    0.29778  -0.36225  -0.16321    |
 |   765    0.40000  -0.20000  -0.40000   |    0.39704  -0.36225  -0.15705    |
 |   766    0.50000  -0.20000  -0.40000   |    0.49630  -0.36225  -0.15089    |
 |   767   -0.40000  -0.20000  -0.40000   |   -0.39704  -0.36225  -0.20631    |
 |   768   -0.30000  -0.20000  -0.40000   |   -0.29778  -0.36225  -0.20016    |
 |   769   -0.20000  -0.20000  -0.40000   |   -0.19852  -0.36225  -0.19400    |
 |   770   -0.10000  -0.20000  -0.40000   |   -0.09926  -0.36225  -0.18784    |
 |   771    0.00000  -0.15000  -0.40000   |    0.00000  -0.27169  -0.18168    |
 |   772    0.10000  -0.15000  -0.40000   |    0.09926  -0.27169  -0.17552    |
 |   773    0.20000  -0.15000  -0.40000   |    0.19852  -0.27169  -0.16937    |
 |   774    0.30000  -0.15000  -0.40000   |    0.29778  -0.27169  -0.16321    |
 |   775    0.40000  -0.15000  -0.40000   |    0.39704  -0.27169  -0.15705    |
 |   776    0.50000  -0.15000  -0.40000   |    0.49630  -0.27169  -0.15089    |
 |   777   -0.40000  -0.15000  -0.40000   |   -0.39704  -0.27169  -0.20631    |
 |   778   -0.30000  -0.15000  -0.40000   |   -0.29778  -0.27169  -0.20016    |
 |   779   -0.20000  -0.15000  -0.40000   |   -0.19852  -0.27169  -0.19400    |
 |   780   -0.10000  -0.15000  -0.40000   |   -0.09926  -0.27169  -0.18784    |
 |   781    0.00000  -0.10000  -0.40000   |    0.00000  -0.18112  -0.18168    |
 |   782    0.10000  -0.10000  -0.40000   |    0.09926  -0.18112  -0.17552    |
 |   783    0.20000  -0.10000  -0.40000   |    0.19852  -0.18112  -0.16937    |
 |   784    0.30000  -0.10000  -0.40000   |    0.29778  -0.18112  -0.16321    |
 |   785    0.40000  -0.10000  -0.40000   |    0.39704  -0.18112  -0.15705    |
 |   786    0.50000  -0.10000  -0.40000   |    0.49630  -0.18112  -0.15089    |
 |   787   -0.40000  -0.10000  -0.40000   |   -0.39704  -0.18112  -0.20631    |
 |   788   -0.30000  -0.10000  -0.40000   |   -0.29778  -0.18112  -0.20016    |
 |   789   -0.20000  -0.10000  -0.40000   |   -0.19852  -0.18112  -0.19400    |
 |   790   -0.10000  -0.10000  -0.40000   |   -0.09926  -0.18112  -0.18784    |
 |   791    0.00000  -0.05000  -0.40000   |    0.00000  -0.09056  -0.18168    |
 |   792    0.10000  -0.05000  -0.40000   |    0.09926  -0.09056  -0.17552    |
 |   793    0.20000  -0.05000  -0.40000   |    0.19852  -0.09056  -0.16937    |
 |   794    0.30000  -0.05000  -0.40000   |    0.29778  -0.09056  -0.16321    |
 |   795    0.40000  -0.05000  -0.40000   |    0.39704  -0.09056  -0.15705    |
 |   796    0.50000  -0.05000  -0.40000   |    0.49630  -0.09056  -0.15089    |
 |   797   -0.40000  -0.05000  -0.40000   |   -0.39704  -0.09056  -0.20631    |
 |   798   -0.30000  -0.05000  -0.40000   |   -0.29778  -0.09056  -0.20016    |
 |   799   -0.20000  -0.05000  -0.40000   |   -0.19852  -0.09056  -0.19400    |
 |   800   -0.10000  -0.05000  -0.40000   |   -0.09926  -0.09056  -0.18784    |
 |   801    0.00000   0.00000  -0.20000   |    0.00000   0.00000  -0.09084    |
 |   802    0.10000   0.00000  -0.20000   |    0.09926   0.00000  -0.08468    |
 |   803    0.20000   0.00000  -0.20000   |    0.19852   0.00000  -0.07852    |
 |   804    0.30000   0.00000  -0.20000   |    0.29778   0.00000  -0.07237    |
 |   805    0.40000   0.00000  -0.20000   |    0.39704   0.00000  -0.06621    |
 |   806    0.50000   0.00000  -0.20000   |    0.49630   0.00000  -0.06005    |
 |   807   -0.40000   0.00000  -0.20000   |   -0.39704   0.00000  -0.11547    |
 |   808   -0.30000   0.00000  -0.20000   |   -0.29778   0.00000  -0.10931    |
 |   809   -0.20000   0.00000  -0.20000   |   -0.19852   0.00000  -0.10316    |
 |   810   -0.10000   0.00000  -0.20000   |   -0.09926   0.00000  -0.09700    |
 |   811    0.00000   0.05000  -0.20000   |    0.00000   0.09056  -0.09084    |
 |   812    0.10000   0.05000  -0.20000   |    0.09926   0.09056  -0.08468    |
 |   813    0.20000   0.05000  -0.20000   |    0.19852   0.09056  -0.07852    |
 |   814    0.30000   0.05000  -0.20000   |    0.29778   0.09056  -0.07237    |
 |   815    0.40000   0.05000  -0.20000   |    0.39704   0.09056  -0.06621    |
 |   816    0.50000   0.05000  -0.20000   |    0.49630   0.09056  -0.06005    |
 |   817   -0.40000   0.05000  -0.20000   |   -0.39704   0.09056  -0.11547    |
 |   818   -0.30000   0.05000  -0.20000   |   -0.29778   0.09056  -0.10931    |
 |   819   -0.20000   0.05000  -0.20000   |   -0.19852   0.09056  -0.10316    |
 |   820   -0.10000   0.05000  -0.20000   |   -0.09926   0.09056  -0.09700    |
 |   821    0.00000   0.10000  -0.20000   |    0.00000   0.18112  -0.09084    |
 |   822    0.10000   0.10000  -0.20000   |    0.09926   0.18112  -0.08468    |
 |   823    0.20000   0.10000  -0.20000   |    0.19852   0.18112  -0.07852    |
 |   824    0.30000   0.10000  -0.20000   |    0.29778   0.18112  -0.07237    |
 |   825    0.40000   0.10000  -0.20000   |    0.39704   0.18112  -0.06621    |
 |   826    0.50000   0.10000  -0.20000   |    0.49630   0.18112  -0.06005    |
 |   827   -0.40000   0.10000  -0.20000   |   -0.39704   0.18112  -0.11547    |
 |   828   -0.30000   0.10000  -0.20000   |   -0.29778   0.18112  -0.10931    |
 |   829   -0.20000   0.10000  -0.20000   |   -0.19852   0.18112  -0.10316    |
 |   830   -0.10000   0.10000  -0.20000   |   -0.09926   0.18112  -0.09700    |
 |   831    0.00000   0.15000  -0.20000   |    0.00000   0.27169  -0.09084    |
 |   832    0.10000   0.15000  -0.20000   |    0.09926   0.27169  -0.08468    |
 |   833    0.20000   0.15000  -0.20000   |    0.19852   0.27169  -0.07852    |
 |   834    0.30000   0.15000  -0.20000   |    0.29778   0.27169  -0.07237    |
 |   835    0.40000   0.15000  -0.20000   |    0.39704   0.27169  -0.06621    |
 |   836    0.50000   0.15000  -0.20000   |    0.49630   0.27169  -0.06005    |
 |   837   -0.40000   0.15000  -0.20000   |   -0.39704   0.27169  -0.11547    |
 |   838   -0.30000   0.15000  -0.20000   |   -0.29778   0.27169  -0.10931    |
 |   839   -0.20000   0.15000  -0.20000   |   -0.19852   0.27169  -0.10316    |
 |   840   -0.10000   0.15000  -0.20000   |   -0.09926   0.27169  -0.09700    |
 |   841    0.00000   0.20000  -0.20000   |    0.00000   0.36225  -0.09084    |
 |   842    0.10000   0.20000  -0.20000   |    0.09926   0.36225  -0.08468    |
 |   843    0.20000   0.20000  -0.20000   |    0.19852   0.36225  -0.07852    |
 |   844    0.30000   0.20000  -0.20000   |    0.29778   0.36225  -0.07237    |
 |   845    0.40000   0.20000  -0.20000   |    0.39704   0.36225  -0.06621    |
 |   846    0.50000   0.20000  -0.20000   |    0.49630   0.36225  -0.06005    |
 |   847   -0.40000   0.20000  -0.20000   |   -0.39704   0.36225  -0.11547    |
 |   848   -0.30000   0.20000  -0.20000   |   -0.29778   0.36225  -0.10931    |
 |   849   -0.20000   0.20000  -0.20000   |   -0.19852   0.36225  -0.10316    |
 |   850   -0.10000   0.20000  -0.20000   |   -0.09926   0.36225  -0.09700    |
 |   851    0.00000   0.25000  -0.20000   |    0.00000   0.45281  -0.09084    |
 |   852    0.10000   0.25000  -0.20000   |    0.09926   0.45281  -0.08468    |
 |   853    0.20000   0.25000  -0.20000   |    0.19852   0.45281  -0.07852    |
 |   854    0.30000   0.25000  -0.20000   |    0.29778   0.45281  -0.07237    |
 |   855    0.40000   0.25000  -0.20000   |    0.39704   0.45281  -0.06621    |
 |   856    0.50000   0.25000  -0.20000   |    0.49630   0.45281  -0.06005    |
 |   857   -0.40000   0.25000  -0.20000   |   -0.39704   0.45281  -0.11547    |
 |   858   -0.30000   0.25000  -0.20000   |   -0.29778   0.45281  -0.10931    |
 |   859   -0.20000   0.25000  -0.20000   |   -0.19852   0.45281  -0.10316    |
 |   860   -0.10000   0.25000  -0.20000   |   -0.09926   0.45281  -0.09700    |
[...]
        O_D=      0.0366626 O_OD=      7.3058725 O_TOT=    114.8973049 <-- SPRD
 Delta: O_D= -0.1273217E-04 O_OD= -0.1091578E-02 O_TOT= -0.1104311E-02 <-- DLTA
 ------------------------------------------------------------------------------
 Cycle:    856
  WF centre and spread    1  (  1.091753,  0.867243,  0.093766 )     1.85373004
  WF centre and spread    2  (  1.196686,  0.867258,  0.116576 )     2.35154430
  WF centre and spread    3  (  1.143712,  0.867242,  0.087101 )     2.43763438
  WF centre and spread    4  (  1.143422,  0.867246,  0.111672 )     1.86046963
  WF centre and spread    5  (  1.161036,  0.867273,  0.088208 )     2.10160173
  WF centre and spread    6  ( -1.091780, -0.867249, -0.093739 )     1.85374906
  WF centre and spread    7  ( -1.196665, -0.867307, -0.116594 )     2.35189737
  WF centre and spread    8  ( -1.143706, -0.867213, -0.087100 )     2.43767331
  WF centre and spread    9  ( -1.143442, -0.867274, -0.111685 )     1.86058892
  WF centre and spread   10  ( -1.161036, -0.867263, -0.088212 )     2.10164029
  WF centre and spread   11  (  1.638609,  2.601743,  7.013879 )     1.83639303
  WF centre and spread   12  (  1.531312,  2.601731,  7.032295 )     2.39662134
  WF centre and spread   13  (  1.591490,  2.601745,  6.989434 )     2.40507618
  WF centre and spread   14  (  1.588421,  2.601740,  7.030545 )     1.88298745
  WF centre and spread   15  (  1.550946,  2.601754,  7.009523 )     2.08279369
  WF centre and spread   16  ( -1.638656, -2.601726, -7.013907 )     1.83645280
  WF centre and spread   17  ( -1.531227, -2.601737, -7.032314 )     2.39651291
  WF centre and spread   18  ( -1.591496, -2.601740, -6.989456 )     2.40513890
  WF centre and spread   19  ( -1.588435, -2.601758, -7.030540 )     1.88290657
  WF centre and spread   20  ( -1.550971, -2.601715, -7.009524 )     2.08287016
  WF centre and spread   21  (  3.652965,  0.867250,  1.538931 )     3.04425909
  WF centre and spread   22  (  3.611485,  0.867219,  1.391021 )     3.22966188
  WF centre and spread   23  (  3.629911,  0.867220,  1.410051 )     2.95938823
  WF centre and spread   24  ( -3.652912, -0.867220, -1.538904 )     3.04429025
  WF centre and spread   25  ( -3.611486, -0.867229, -1.391017 )     3.23002823
  WF centre and spread   26  ( -3.629918, -0.867274, -1.410064 )     2.95919355
  WF centre and spread   27  (  0.019946,  0.867264,  5.382426 )     3.01646002
  WF centre and spread   28  (  0.007979,  0.867256,  5.510810 )     3.23413203
  WF centre and spread   29  (  0.010189,  0.867243,  5.509104 )     2.96132897
  WF centre and spread   30  ( -0.019927, -0.867176, -5.382441 )     3.01652382
  WF centre and spread   31  ( -0.007889, -0.867194, -5.510867 )     3.23434600
  WF centre and spread   32  ( -0.010194, -0.867270, -5.509115 )     2.96129671
  WF centre and spread   33  (  0.489289,  2.601677,  2.111449 )     3.25479684
  WF centre and spread   34  (  0.482986,  2.601724,  2.071037 )     2.76915153
  WF centre and spread   35  (  0.494053,  2.601753,  2.042271 )     2.86132364
  WF centre and spread   36  ( -0.489219, -2.601728, -2.111539 )     3.25472848
  WF centre and spread   37  ( -0.483007, -2.601746, -2.070985 )     2.76896560
  WF centre and spread   38  ( -0.494055, -2.601731, -2.042264 )     2.86119572
  WF centre and spread   39  (  3.241910,  2.601701,  4.831298 )     3.24949861
  WF centre and spread   40  (  3.221125,  2.601758,  4.862499 )     2.77272918
  WF centre and spread   41  (  3.227796,  2.601759,  4.887333 )     2.88702000
  WF centre and spread   42  ( -3.241832, -2.601788, -4.831232 )     3.24937061
  WF centre and spread   43  ( -3.221111, -2.601769, -4.862564 )     2.77251281
  WF centre and spread   44  ( -3.227796, -2.601750, -4.887333 )     2.88662523
  Sum of centres and spreads (  0.000263, -0.000058, -0.000170 )   114.89710910

    856    -0.196E-03     0.0245566058      114.8971091016    2818.34  <-- CONV
        O_D=      0.0366493 O_OD=      7.3056900 O_TOT=    114.8971091 <-- SPRD
 Delta: O_D= -0.1327637E-04 O_OD= -0.1825534E-03 O_TOT= -0.1958298E-03 <-- DLTA
 ------------------------------------------------------------------------------
 Cycle:    857
  WF centre and spread    1  (  1.091753,  0.867243,  0.093766 )     1.85373028
  WF centre and spread    2  (  1.196687,  0.867258,  0.116575 )     2.35154489
  WF centre and spread    3  (  1.143712,  0.867242,  0.087101 )     2.43763238
  WF centre and spread    4  (  1.143422,  0.867246,  0.111672 )     1.86046523
  WF centre and spread    5  (  1.161036,  0.867273,  0.088208 )     2.10160100
  WF centre and spread    6  ( -1.091779, -0.867249, -0.093740 )     1.85374891
  WF centre and spread    7  ( -1.196666, -0.867307, -0.116593 )     2.35189789
  WF centre and spread    8  ( -1.143706, -0.867213, -0.087100 )     2.43767137
  WF centre and spread    9  ( -1.143441, -0.867274, -0.111686 )     1.86058454
  WF centre and spread   10  ( -1.161036, -0.867263, -0.088212 )     2.10163958
  WF centre and spread   11  (  1.638609,  2.601743,  7.013879 )     1.83639376
  WF centre and spread   12  (  1.531312,  2.601731,  7.032295 )     2.39662248
  WF centre and spread   13  (  1.591491,  2.601745,  6.989434 )     2.40507182
  WF centre and spread   14  (  1.588421,  2.601740,  7.030545 )     1.88298246
  WF centre and spread   15  (  1.550946,  2.601754,  7.009523 )     2.08279544
  WF centre and spread   16  ( -1.638657, -2.601726, -7.013907 )     1.83645352
  WF centre and spread   17  ( -1.531226, -2.601737, -7.032314 )     2.39651398
  WF centre and spread   18  ( -1.591496, -2.601740, -6.989456 )     2.40513459
  WF centre and spread   19  ( -1.588435, -2.601758, -7.030540 )     1.88290118
  WF centre and spread   20  ( -1.550971, -2.601715, -7.009524 )     2.08287192
  WF centre and spread   21  (  3.652965,  0.867250,  1.538931 )     3.04425828
  WF centre and spread   22  (  3.611485,  0.867219,  1.391021 )     3.22966077
  WF centre and spread   23  (  3.629911,  0.867220,  1.410051 )     2.95938807
  WF centre and spread   24  ( -3.652913, -0.867220, -1.538904 )     3.04428951
  WF centre and spread   25  ( -3.611486, -0.867229, -1.391017 )     3.23002709
  WF centre and spread   26  ( -3.629918, -0.867274, -1.410064 )     2.95919335
  WF centre and spread   27  (  0.019946,  0.867264,  5.382426 )     3.01645964
  WF centre and spread   28  (  0.007979,  0.867256,  5.510810 )     3.23413117
  WF centre and spread   29  (  0.010189,  0.867243,  5.509104 )     2.96132845
  WF centre and spread   30  ( -0.019927, -0.867176, -5.382441 )     3.01652343
  WF centre and spread   31  ( -0.007889, -0.867194, -5.510867 )     3.23434511
  WF centre and spread   32  ( -0.010194, -0.867270, -5.509115 )     2.96129623
  WF centre and spread   33  (  0.489289,  2.601677,  2.111449 )     3.25479560
  WF centre and spread   34  (  0.482986,  2.601724,  2.071037 )     2.76915117
  WF centre and spread   35  (  0.494053,  2.601753,  2.042271 )     2.86132124
  WF centre and spread   36  ( -0.489219, -2.601728, -2.111539 )     3.25472726
  WF centre and spread   37  ( -0.483007, -2.601746, -2.070985 )     2.76896528
  WF centre and spread   38  ( -0.494055, -2.601731, -2.042264 )     2.86119339
  WF centre and spread   39  (  3.241911,  2.601701,  4.831298 )     3.24949980
  WF centre and spread   40  (  3.221125,  2.601758,  4.862499 )     2.77272846
  WF centre and spread   41  (  3.227796,  2.601759,  4.887333 )     2.88702003
  WF centre and spread   42  ( -3.241832, -2.601788, -4.831232 )     3.24937183
  WF centre and spread   43  ( -3.221110, -2.601769, -4.862564 )     2.77251211
  WF centre and spread   44  ( -3.227796, -2.601750, -4.887333 )     2.88662526
  Sum of centres and spreads (  0.000263, -0.000058, -0.000170 )   114.89706975

    857    -0.394E-04     0.0104772907      114.8970697458    2821.23  <-- CONV
        O_D=      0.0366472 O_OD=      7.3056528 O_TOT=    114.8970697 <-- SPRD
 Delta: O_D= -0.2183028E-05 O_OD= -0.3717285E-04 O_TOT= -0.3935588E-04 <-- DLTA
 ------------------------------------------------------------------------------
 Cycle:    858
  WF centre and spread    1  (  1.091752,  0.867243,  0.093767 )     1.85373129
  WF centre and spread    2  (  1.196688,  0.867258,  0.116575 )     2.35154688
  WF centre and spread    3  (  1.143712,  0.867242,  0.087101 )     2.43763110
  WF centre and spread    4  (  1.143422,  0.867246,  0.111673 )     1.86046195
  WF centre and spread    5  (  1.161036,  0.867273,  0.088208 )     2.10160181
  WF centre and spread    6  ( -1.091778, -0.867249, -0.093740 )     1.85374993
  WF centre and spread    7  ( -1.196667, -0.867307, -0.116593 )     2.35189987
  WF centre and spread    8  ( -1.143705, -0.867213, -0.087100 )     2.43767010
  WF centre and spread    9  ( -1.143441, -0.867274, -0.111686 )     1.86058125
  WF centre and spread   10  ( -1.161036, -0.867263, -0.088212 )     2.10164040
  WF centre and spread   11  (  1.638610,  2.601743,  7.013879 )     1.83639466
  WF centre and spread   12  (  1.531311,  2.601731,  7.032294 )     2.39662530
  WF centre and spread   13  (  1.591491,  2.601745,  6.989434 )     2.40506784
  WF centre and spread   14  (  1.588422,  2.601740,  7.030546 )     1.88297831
  WF centre and spread   15  (  1.550945,  2.601754,  7.009523 )     2.08279955
  WF centre and spread   16  ( -1.638658, -2.601726, -7.013907 )     1.83645442
  WF centre and spread   17  ( -1.531225, -2.601737, -7.032313 )     2.39651679
  WF centre and spread   18  ( -1.591497, -2.601740, -6.989456 )     2.40513061
  WF centre and spread   19  ( -1.588436, -2.601758, -7.030541 )     1.88289704
  WF centre and spread   20  ( -1.550970, -2.601715, -7.009524 )     2.08287603
  WF centre and spread   21  (  3.652965,  0.867250,  1.538931 )     3.04425738
  WF centre and spread   22  (  3.611485,  0.867219,  1.391021 )     3.22966126
  WF centre and spread   23  (  3.629911,  0.867220,  1.410051 )     2.95938814
  WF centre and spread   24  ( -3.652913, -0.867220, -1.538904 )     3.04428861
  WF centre and spread   25  ( -3.611485, -0.867229, -1.391017 )     3.23002757
  WF centre and spread   26  ( -3.629918, -0.867274, -1.410064 )     2.95919342
  WF centre and spread   27  (  0.019947,  0.867264,  5.382426 )     3.01645957
  WF centre and spread   28  (  0.007979,  0.867256,  5.510810 )     3.23413131
  WF centre and spread   29  (  0.010189,  0.867243,  5.509104 )     2.96132828
  WF centre and spread   30  ( -0.019928, -0.867176, -5.382441 )     3.01652336
  WF centre and spread   31  ( -0.007889, -0.867194, -5.510867 )     3.23434525
  WF centre and spread   32  ( -0.010194, -0.867270, -5.509115 )     2.96129606
  WF centre and spread   33  (  0.489289,  2.601677,  2.111449 )     3.25479553
  WF centre and spread   34  (  0.482986,  2.601724,  2.071037 )     2.76915131
  WF centre and spread   35  (  0.494053,  2.601753,  2.042271 )     2.86132062
  WF centre and spread   36  ( -0.489219, -2.601728, -2.111539 )     3.25472719
  WF centre and spread   37  ( -0.483007, -2.601746, -2.070985 )     2.76896543
  WF centre and spread   38  ( -0.494055, -2.601731, -2.042264 )     2.86119278
  WF centre and spread   39  (  3.241912,  2.601701,  4.831298 )     3.24950045
  WF centre and spread   40  (  3.221124,  2.601758,  4.862499 )     2.77272806
  WF centre and spread   41  (  3.227796,  2.601759,  4.887333 )     2.88702035
  WF centre and spread   42  ( -3.241833, -2.601788, -4.831232 )     3.24937250
  WF centre and spread   43  ( -3.221110, -2.601769, -4.862564 )     2.77251171
  WF centre and spread   44  ( -3.227796, -2.601750, -4.887333 )     2.88662558
  Sum of centres and spreads (  0.000263, -0.000058, -0.000170 )   114.89706687

    858    -0.288E-05     0.0022574770      114.8970668661    2824.04  <-- CONV
        O_D=      0.0366472 O_OD=      7.3056499 O_TOT=    114.8970669 <-- SPRD
 Delta: O_D=  0.5243639E-08 O_OD= -0.2884941E-05 O_TOT= -0.2879697E-05 <-- DLTA
 ------------------------------------------------------------------------------
 Cycle:    859
  WF centre and spread    1  (  1.091749,  0.867243,  0.093767 )     1.85373456
  WF centre and spread    2  (  1.196691,  0.867258,  0.116573 )     2.35155291
  WF centre and spread    3  (  1.143711,  0.867242,  0.087101 )     2.43762752
  WF centre and spread    4  (  1.143421,  0.867246,  0.111673 )     1.86045231
  WF centre and spread    5  (  1.161037,  0.867273,  0.088208 )     2.10160453
  WF centre and spread    6  ( -1.091776, -0.867249, -0.093740 )     1.85375318
  WF centre and spread    7  ( -1.196670, -0.867307, -0.116591 )     2.35190585
  WF centre and spread    8  ( -1.143705, -0.867213, -0.087100 )     2.43766656
  WF centre and spread    9  ( -1.143441, -0.867274, -0.111687 )     1.86057160
  WF centre and spread   10  ( -1.161036, -0.867263, -0.088212 )     2.10164312
  WF centre and spread   11  (  1.638613,  2.601743,  7.013880 )     1.83639760
  WF centre and spread   12  (  1.531307,  2.601731,  7.032293 )     2.39663393
  WF centre and spread   13  (  1.591493,  2.601745,  6.989433 )     2.40505572
  WF centre and spread   14  (  1.588422,  2.601740,  7.030547 )     1.88296607
  WF centre and spread   15  (  1.550943,  2.601754,  7.009523 )     2.08281205
  WF centre and spread   16  ( -1.638660, -2.601726, -7.013908 )     1.83645736
  WF centre and spread   17  ( -1.531222, -2.601737, -7.032312 )     2.39652543
  WF centre and spread   18  ( -1.591499, -2.601740, -6.989455 )     2.40511851
  WF centre and spread   19  ( -1.588437, -2.601758, -7.030541 )     1.88288476
  WF centre and spread   20  ( -1.550968, -2.601715, -7.009524 )     2.08288853
  WF centre and spread   21  (  3.652967,  0.867250,  1.538931 )     3.04425473
  WF centre and spread   22  (  3.611483,  0.867219,  1.391021 )     3.22966313
  WF centre and spread   23  (  3.629911,  0.867220,  1.410051 )     2.95938832
  WF centre and spread   24  ( -3.652914, -0.867220, -1.538905 )     3.04428597
  WF centre and spread   25  ( -3.611484, -0.867229, -1.391017 )     3.23002942
  WF centre and spread   26  ( -3.629918, -0.867274, -1.410064 )     2.95919360
  WF centre and spread   27  (  0.019947,  0.867264,  5.382426 )     3.01645941
  WF centre and spread   28  (  0.007979,  0.867256,  5.510810 )     3.23413179
  WF centre and spread   29  (  0.010189,  0.867243,  5.509104 )     2.96132791
  WF centre and spread   30  ( -0.019928, -0.867176, -5.382441 )     3.01652321
  WF centre and spread   31  ( -0.007888, -0.867194, -5.510867 )     3.23434575
  WF centre and spread   32  ( -0.010194, -0.867270, -5.509115 )     2.96129568
  WF centre and spread   33  (  0.489289,  2.601677,  2.111449 )     3.25479550
  WF centre and spread   34  (  0.482986,  2.601724,  2.071037 )     2.76915168
  WF centre and spread   35  (  0.494053,  2.601753,  2.042271 )     2.86131936
  WF centre and spread   36  ( -0.489219, -2.601728, -2.111539 )     3.25472717
  WF centre and spread   37  ( -0.483006, -2.601746, -2.070985 )     2.76896579
  WF centre and spread   38  ( -0.494055, -2.601731, -2.042264 )     2.86119154
  WF centre and spread   39  (  3.241913,  2.601701,  4.831298 )     3.24950198
  WF centre and spread   40  (  3.221122,  2.601758,  4.862499 )     2.77272711
  WF centre and spread   41  (  3.227796,  2.601759,  4.887333 )     2.88702115
  WF centre and spread   42  ( -3.241835, -2.601788, -4.831232 )     3.24937406
  WF centre and spread   43  ( -3.221108, -2.601769, -4.862564 )     2.77251076
  WF centre and spread   44  ( -3.227796, -2.601750, -4.887333 )     2.88662638
  Sum of centres and spreads (  0.000263, -0.000058, -0.000170 )   114.89706349

    859    -0.337E-05     0.0021911436      114.8970634949    2826.70  <-- CONV
        O_D=      0.0366472 O_OD=      7.3056465 O_TOT=    114.8970635 <-- SPRD
 Delta: O_D=  0.4472999E-08 O_OD= -0.3375620E-05 O_TOT= -0.3371147E-05 <-- DLTA
 ------------------------------------------------------------------------------
 Cycle:    860
  WF centre and spread    1  (  1.091749,  0.867243,  0.093767 )     1.85373521
  WF centre and spread    2  (  1.196692,  0.867258,  0.116573 )     2.35155381
  WF centre and spread    3  (  1.143711,  0.867242,  0.087101 )     2.43762697
  WF centre and spread    4  (  1.143421,  0.867246,  0.111674 )     1.86045063
  WF centre and spread    5  (  1.161037,  0.867273,  0.088208 )     2.10160510
  WF centre and spread    6  ( -1.091775, -0.867249, -0.093740 )     1.85375381
  WF centre and spread    7  ( -1.196671, -0.867307, -0.116591 )     2.35190675
  WF centre and spread    8  ( -1.143705, -0.867213, -0.087100 )     2.43766600
  WF centre and spread    9  ( -1.143440, -0.867274, -0.111687 )     1.86056993
  WF centre and spread   10  ( -1.161036, -0.867263, -0.088212 )     2.10164369
  WF centre and spread   11  (  1.638613,  2.601743,  7.013880 )     1.83639820
  WF centre and spread   12  (  1.531307,  2.601731,  7.032292 )     2.39663540
  WF centre and spread   13  (  1.591494,  2.601745,  6.989433 )     2.40505338
  WF centre and spread   14  (  1.588423,  2.601740,  7.030547 )     1.88296393
  WF centre and spread   15  (  1.550943,  2.601754,  7.009523 )     2.08281425
  WF centre and spread   16  ( -1.638661, -2.601726, -7.013908 )     1.83645796
  WF centre and spread   17  ( -1.531222, -2.601737, -7.032312 )     2.39652690
  WF centre and spread   18  ( -1.591499, -2.601740, -6.989455 )     2.40511617
  WF centre and spread   19  ( -1.588437, -2.601758, -7.030542 )     1.88288260
  WF centre and spread   20  ( -1.550968, -2.601715, -7.009524 )     2.08289073
  WF centre and spread   21  (  3.652967,  0.867250,  1.538931 )     3.04425424
  WF centre and spread   22  (  3.611483,  0.867219,  1.391021 )     3.22966361
  WF centre and spread   23  (  3.629911,  0.867220,  1.410051 )     2.95938828
  WF centre and spread   24  ( -3.652914, -0.867220, -1.538905 )     3.04428548
  WF centre and spread   25  ( -3.611484, -0.867229, -1.391017 )     3.23002990
  WF centre and spread   26  ( -3.629918, -0.867274, -1.410064 )     2.95919355
  WF centre and spread   27  (  0.019947,  0.867264,  5.382426 )     3.01645932
  WF centre and spread   28  (  0.007979,  0.867256,  5.510810 )     3.23413185
  WF centre and spread   29  (  0.010189,  0.867243,  5.509104 )     2.96132792
  WF centre and spread   30  ( -0.019928, -0.867176, -5.382441 )     3.01652312
  WF centre and spread   31  ( -0.007888, -0.867194, -5.510867 )     3.23434580
  WF centre and spread   32  ( -0.010194, -0.867270, -5.509115 )     2.96129569
  WF centre and spread   33  (  0.489289,  2.601677,  2.111449 )     3.25479548
  WF centre and spread   34  (  0.482986,  2.601724,  2.071037 )     2.76915161
  WF centre and spread   35  (  0.494053,  2.601753,  2.042271 )     2.86131946
  WF centre and spread   36  ( -0.489219, -2.601728, -2.111539 )     3.25472714
  WF centre and spread   37  ( -0.483006, -2.601746, -2.070985 )     2.76896572
  WF centre and spread   38  ( -0.494055, -2.601731, -2.042264 )     2.86119164
  WF centre and spread   39  (  3.241914,  2.601701,  4.831298 )     3.24950186
  WF centre and spread   40  (  3.221122,  2.601758,  4.862499 )     2.77272709
  WF centre and spread   41  (  3.227796,  2.601759,  4.887333 )     2.88702104
  WF centre and spread   42  ( -3.241835, -2.601788, -4.831232 )     3.24937393
  WF centre and spread   43  ( -3.221108, -2.601769, -4.862564 )     2.77251075
  WF centre and spread   44  ( -3.227796, -2.601750, -4.887333 )     2.88662628
  Sum of centres and spreads (  0.000263, -0.000058, -0.000170 )   114.89706217

    860    -0.132E-05     0.0020178294      114.8970621734    2829.37  <-- CONV
        O_D=      0.0366471 O_OD=      7.3056452 O_TOT=    114.8970622 <-- SPRD
 Delta: O_D= -0.3456458E-07 O_OD= -0.1286967E-05 O_TOT= -0.1321531E-05 <-- DLTA
 ------------------------------------------------------------------------------
 Cycle:    861
