File written on  8Feb2022 at 19:39:34 

calc_only_A  :  F

begin real_lattice
   6.3300000   0.0000000   0.0000000
   0.0000000   3.4690000   0.0000000
  -0.8582050   0.0000000  13.8334046
end real_lattice

begin recip_lattice
   0.9926043  -0.0000000   0.0615798
   0.0000000   1.8112382  -0.0000000
   0.0000000   0.0000000   0.4542038
end recip_lattice

begin kpoints
  1000
    0.00000000    0.00000000    0.00000000
    0.10000000    0.00000000    0.00000000
    0.20000000    0.00000000    0.00000000
    0.30000000    0.00000000    0.00000000
    0.40000000    0.00000000    0.00000000
    0.50000000    0.00000000    0.00000000
   -0.40000000    0.00000000    0.00000000
   -0.30000000    0.00000000    0.00000000
   -0.20000000    0.00000000    0.00000000
   -0.10000000    0.00000000    0.00000000
    0.00000000    0.05000000    0.00000000
    0.10000000    0.05000000    0.00000000
    0.20000000    0.05000000    0.00000000
    0.30000000    0.05000000    0.00000000
    0.40000000    0.05000000    0.00000000
    0.50000000    0.05000000    0.00000000
   -0.40000000    0.05000000    0.00000000
   -0.30000000    0.05000000    0.00000000
   -0.20000000    0.05000000    0.00000000
   -0.10000000    0.05000000    0.00000000
    0.00000000    0.10000000    0.00000000
    0.10000000    0.10000000    0.00000000
    0.20000000    0.10000000    0.00000000
    0.30000000    0.10000000    0.00000000
    0.40000000    0.10000000    0.00000000
    0.50000000    0.10000000    0.00000000
   -0.40000000    0.10000000    0.00000000
   -0.30000000    0.10000000    0.00000000
   -0.20000000    0.10000000    0.00000000
   -0.10000000    0.10000000    0.00000000
    0.00000000    0.15000000    0.00000000
    0.10000000    0.15000000    0.00000000
    0.20000000    0.15000000    0.00000000
    0.30000000    0.15000000    0.00000000
    0.40000000    0.15000000    0.00000000
    0.50000000    0.15000000    0.00000000
   -0.40000000    0.15000000    0.00000000
   -0.30000000    0.15000000    0.00000000
   -0.20000000    0.15000000    0.00000000
   -0.10000000    0.15000000    0.00000000
    0.00000000    0.20000000    0.00000000
    0.10000000    0.20000000    0.00000000
    0.20000000    0.20000000    0.00000000
    0.30000000    0.20000000    0.00000000
    0.40000000    0.20000000    0.00000000
    0.50000000    0.20000000    0.00000000
   -0.40000000    0.20000000    0.00000000
   -0.30000000    0.20000000    0.00000000
   -0.20000000    0.20000000    0.00000000
   -0.10000000    0.20000000    0.00000000
    0.00000000    0.25000000    0.00000000
    0.10000000    0.25000000    0.00000000
    0.20000000    0.25000000    0.00000000
    0.30000000    0.25000000    0.00000000
    0.40000000    0.25000000    0.00000000
    0.50000000    0.25000000    0.00000000
   -0.40000000    0.25000000    0.00000000
   -0.30000000    0.25000000    0.00000000
   -0.20000000    0.25000000    0.00000000
   -0.10000000    0.25000000    0.00000000
    0.00000000    0.30000000    0.00000000
    0.10000000    0.30000000    0.00000000
    0.20000000    0.30000000    0.00000000
    0.30000000    0.30000000    0.00000000
    0.40000000    0.30000000    0.00000000
    0.50000000    0.30000000    0.00000000
   -0.40000000    0.30000000    0.00000000
   -0.30000000    0.30000000    0.00000000
   -0.20000000    0.30000000    0.00000000
   -0.10000000    0.30000000    0.00000000
    0.00000000    0.35000000    0.00000000
    0.10000000    0.35000000    0.00000000
    0.20000000    0.35000000    0.00000000
    0.30000000    0.35000000    0.00000000
    0.40000000    0.35000000    0.00000000
    0.50000000    0.35000000    0.00000000
   -0.40000000    0.35000000    0.00000000
   -0.30000000    0.35000000    0.00000000
   -0.20000000    0.35000000    0.00000000
   -0.10000000    0.35000000    0.00000000
    0.00000000    0.40000000    0.00000000
    0.10000000    0.40000000    0.00000000
    0.20000000    0.40000000    0.00000000
    0.30000000    0.40000000    0.00000000
    0.40000000    0.40000000    0.00000000
    0.50000000    0.40000000    0.00000000
   -0.40000000    0.40000000    0.00000000
   -0.30000000    0.40000000    0.00000000
   -0.20000000    0.40000000    0.00000000
   -0.10000000    0.40000000    0.00000000
    0.00000000    0.45000000    0.00000000
    0.10000000    0.45000000    0.00000000
    0.20000000    0.45000000    0.00000000
    0.30000000    0.45000000    0.00000000
    0.40000000    0.45000000    0.00000000
    0.50000000    0.45000000    0.00000000
   -0.40000000    0.45000000    0.00000000
   -0.30000000    0.45000000    0.00000000
   -0.20000000    0.45000000    0.00000000
   -0.10000000    0.45000000    0.00000000
    0.00000000    0.50000000    0.00000000
    0.10000000    0.50000000    0.00000000
    0.20000000    0.50000000    0.00000000
    0.30000000    0.50000000    0.00000000
    0.40000000    0.50000000    0.00000000
    0.50000000    0.50000000    0.00000000
   -0.40000000    0.50000000    0.00000000
   -0.30000000    0.50000000    0.00000000
   -0.20000000    0.50000000    0.00000000
   -0.10000000    0.50000000    0.00000000
    0.00000000   -0.45000000    0.00000000
    0.10000000   -0.45000000    0.00000000
    0.20000000   -0.45000000    0.00000000
    0.30000000   -0.45000000    0.00000000
    0.40000000   -0.45000000    0.00000000
    0.50000000   -0.45000000    0.00000000
   -0.40000000   -0.45000000    0.00000000
   -0.30000000   -0.45000000    0.00000000
   -0.20000000   -0.45000000    0.00000000
   -0.10000000   -0.45000000    0.00000000
    0.00000000   -0.40000000    0.00000000
    0.10000000   -0.40000000    0.00000000
    0.20000000   -0.40000000    0.00000000
    0.30000000   -0.40000000    0.00000000
    0.40000000   -0.40000000    0.00000000
    0.50000000   -0.40000000    0.00000000
   -0.40000000   -0.40000000    0.00000000
   -0.30000000   -0.40000000    0.00000000
   -0.20000000   -0.40000000    0.00000000
   -0.10000000   -0.40000000    0.00000000
    0.00000000   -0.35000000    0.00000000
    0.10000000   -0.35000000    0.00000000
    0.20000000   -0.35000000    0.00000000
    0.30000000   -0.35000000    0.00000000
    0.40000000   -0.35000000    0.00000000
    0.50000000   -0.35000000    0.00000000
   -0.40000000   -0.35000000    0.00000000
   -0.30000000   -0.35000000    0.00000000
   -0.20000000   -0.35000000    0.00000000
   -0.10000000   -0.35000000    0.00000000
    0.00000000   -0.30000000    0.00000000
    0.10000000   -0.30000000    0.00000000
    0.20000000   -0.30000000    0.00000000
    0.30000000   -0.30000000    0.00000000
    0.40000000   -0.30000000    0.00000000
    0.50000000   -0.30000000    0.00000000
   -0.40000000   -0.30000000    0.00000000
   -0.30000000   -0.30000000    0.00000000
   -0.20000000   -0.30000000    0.00000000
   -0.10000000   -0.30000000    0.00000000
    0.00000000   -0.25000000    0.00000000
    0.10000000   -0.25000000    0.00000000
    0.20000000   -0.25000000    0.00000000
    0.30000000   -0.25000000    0.00000000
    0.40000000   -0.25000000    0.00000000
    0.50000000   -0.25000000    0.00000000
   -0.40000000   -0.25000000    0.00000000
   -0.30000000   -0.25000000    0.00000000
   -0.20000000   -0.25000000    0.00000000
   -0.10000000   -0.25000000    0.00000000
    0.00000000   -0.20000000    0.00000000
    0.10000000   -0.20000000    0.00000000
    0.20000000   -0.20000000    0.00000000
    0.30000000   -0.20000000    0.00000000
    0.40000000   -0.20000000    0.00000000
    0.50000000   -0.20000000    0.00000000
   -0.40000000   -0.20000000    0.00000000
   -0.30000000   -0.20000000    0.00000000
   -0.20000000   -0.20000000    0.00000000
   -0.10000000   -0.20000000    0.00000000
    0.00000000   -0.15000000    0.00000000
    0.10000000   -0.15000000    0.00000000
    0.20000000   -0.15000000    0.00000000
    0.30000000   -0.15000000    0.00000000
    0.40000000   -0.15000000    0.00000000
    0.50000000   -0.15000000    0.00000000
   -0.40000000   -0.15000000    0.00000000
   -0.30000000   -0.15000000    0.00000000
   -0.20000000   -0.15000000    0.00000000
   -0.10000000   -0.15000000    0.00000000
    0.00000000   -0.10000000    0.00000000
    0.10000000   -0.10000000    0.00000000
    0.20000000   -0.10000000    0.00000000
    0.30000000   -0.10000000    0.00000000
    0.40000000   -0.10000000    0.00000000
    0.50000000   -0.10000000    0.00000000
   -0.40000000   -0.10000000    0.00000000
   -0.30000000   -0.10000000    0.00000000
   -0.20000000   -0.10000000    0.00000000
   -0.10000000   -0.10000000    0.00000000
    0.00000000   -0.05000000    0.00000000
    0.10000000   -0.05000000    0.00000000
    0.20000000   -0.05000000    0.00000000
    0.30000000   -0.05000000    0.00000000
    0.40000000   -0.05000000    0.00000000
    0.50000000   -0.05000000    0.00000000
   -0.40000000   -0.05000000    0.00000000
   -0.30000000   -0.05000000    0.00000000
   -0.20000000   -0.05000000    0.00000000
   -0.10000000   -0.05000000    0.00000000
    0.00000000    0.00000000    0.20000000
    0.10000000    0.00000000    0.20000000
    0.20000000    0.00000000    0.20000000
    0.30000000    0.00000000    0.20000000
    0.40000000    0.00000000    0.20000000
    0.50000000    0.00000000    0.20000000
   -0.40000000    0.00000000    0.20000000
   -0.30000000    0.00000000    0.20000000
   -0.20000000    0.00000000    0.20000000
   -0.10000000    0.00000000    0.20000000
    0.00000000    0.05000000    0.20000000
    0.10000000    0.05000000    0.20000000
    0.20000000    0.05000000    0.20000000
    0.30000000    0.05000000    0.20000000
    0.40000000    0.05000000    0.20000000
    0.50000000    0.05000000    0.20000000
   -0.40000000    0.05000000    0.20000000
   -0.30000000    0.05000000    0.20000000
   -0.20000000    0.05000000    0.20000000
   -0.10000000    0.05000000    0.20000000
    0.00000000    0.10000000    0.20000000
    0.10000000    0.10000000    0.20000000
    0.20000000    0.10000000    0.20000000
    0.30000000    0.10000000    0.20000000
    0.40000000    0.10000000    0.20000000
    0.50000000    0.10000000    0.20000000
   -0.40000000    0.10000000    0.20000000
   -0.30000000    0.10000000    0.20000000
   -0.20000000    0.10000000    0.20000000
   -0.10000000    0.10000000    0.20000000
    0.00000000    0.15000000    0.20000000
    0.10000000    0.15000000    0.20000000
    0.20000000    0.15000000    0.20000000
    0.30000000    0.15000000    0.20000000
    0.40000000    0.15000000    0.20000000
    0.50000000    0.15000000    0.20000000
   -0.40000000    0.15000000    0.20000000
   -0.30000000    0.15000000    0.20000000
   -0.20000000    0.15000000    0.20000000
   -0.10000000    0.15000000    0.20000000
    0.00000000    0.20000000    0.20000000
    0.10000000    0.20000000    0.20000000
    0.20000000    0.20000000    0.20000000
    0.30000000    0.20000000    0.20000000
    0.40000000    0.20000000    0.20000000
    0.50000000    0.20000000    0.20000000
   -0.40000000    0.20000000    0.20000000
   -0.30000000    0.20000000    0.20000000
   -0.20000000    0.20000000    0.20000000
   -0.10000000    0.20000000    0.20000000
    0.00000000    0.25000000    0.20000000
    0.10000000    0.25000000    0.20000000
    0.20000000    0.25000000    0.20000000
    0.30000000    0.25000000    0.20000000
    0.40000000    0.25000000    0.20000000
    0.50000000    0.25000000    0.20000000
   -0.40000000    0.25000000    0.20000000
   -0.30000000    0.25000000    0.20000000
   -0.20000000    0.25000000    0.20000000
   -0.10000000    0.25000000    0.20000000
    0.00000000    0.30000000    0.20000000
    0.10000000    0.30000000    0.20000000
    0.20000000    0.30000000    0.20000000
    0.30000000    0.30000000    0.20000000
    0.40000000    0.30000000    0.20000000
    0.50000000    0.30000000    0.20000000
   -0.40000000    0.30000000    0.20000000
   -0.30000000    0.30000000    0.20000000
   -0.20000000    0.30000000    0.20000000
   -0.10000000    0.30000000    0.20000000
    0.00000000    0.35000000    0.20000000
    0.10000000    0.35000000    0.20000000
    0.20000000    0.35000000    0.20000000
    0.30000000    0.35000000    0.20000000
    0.40000000    0.35000000    0.20000000
    0.50000000    0.35000000    0.20000000
   -0.40000000    0.35000000    0.20000000
   -0.30000000    0.35000000    0.20000000
   -0.20000000    0.35000000    0.20000000
   -0.10000000    0.35000000    0.20000000
    0.00000000    0.40000000    0.20000000
    0.10000000    0.40000000    0.20000000
    0.20000000    0.40000000    0.20000000
    0.30000000    0.40000000    0.20000000
    0.40000000    0.40000000    0.20000000
    0.50000000    0.40000000    0.20000000
   -0.40000000    0.40000000    0.20000000
   -0.30000000    0.40000000    0.20000000
   -0.20000000    0.40000000    0.20000000
   -0.10000000    0.40000000    0.20000000
    0.00000000    0.45000000    0.20000000
    0.10000000    0.45000000    0.20000000
    0.20000000    0.45000000    0.20000000
    0.30000000    0.45000000    0.20000000
    0.40000000    0.45000000    0.20000000
    0.50000000    0.45000000    0.20000000
   -0.40000000    0.45000000    0.20000000
   -0.30000000    0.45000000    0.20000000
   -0.20000000    0.45000000    0.20000000
   -0.10000000    0.45000000    0.20000000
    0.00000000    0.50000000    0.20000000
    0.10000000    0.50000000    0.20000000
    0.20000000    0.50000000    0.20000000
    0.30000000    0.50000000    0.20000000
    0.40000000    0.50000000    0.20000000
    0.50000000    0.50000000    0.20000000
   -0.40000000    0.50000000    0.20000000
   -0.30000000    0.50000000    0.20000000
   -0.20000000    0.50000000    0.20000000
   -0.10000000    0.50000000    0.20000000
    0.00000000   -0.45000000    0.20000000
    0.10000000   -0.45000000    0.20000000
    0.20000000   -0.45000000    0.20000000
    0.30000000   -0.45000000    0.20000000
    0.40000000   -0.45000000    0.20000000
    0.50000000   -0.45000000    0.20000000
   -0.40000000   -0.45000000    0.20000000
   -0.30000000   -0.45000000    0.20000000
   -0.20000000   -0.45000000    0.20000000
   -0.10000000   -0.45000000    0.20000000
    0.00000000   -0.40000000    0.20000000
    0.10000000   -0.40000000    0.20000000
    0.20000000   -0.40000000    0.20000000
    0.30000000   -0.40000000    0.20000000
    0.40000000   -0.40000000    0.20000000
    0.50000000   -0.40000000    0.20000000
   -0.40000000   -0.40000000    0.20000000
   -0.30000000   -0.40000000    0.20000000
   -0.20000000   -0.40000000    0.20000000
   -0.10000000   -0.40000000    0.20000000
    0.00000000   -0.35000000    0.20000000
    0.10000000   -0.35000000    0.20000000
    0.20000000   -0.35000000    0.20000000
    0.30000000   -0.35000000    0.20000000
    0.40000000   -0.35000000    0.20000000
    0.50000000   -0.35000000    0.20000000
   -0.40000000   -0.35000000    0.20000000
   -0.30000000   -0.35000000    0.20000000
   -0.20000000   -0.35000000    0.20000000
   -0.10000000   -0.35000000    0.20000000
    0.00000000   -0.30000000    0.20000000
    0.10000000   -0.30000000    0.20000000
    0.20000000   -0.30000000    0.20000000
    0.30000000   -0.30000000    0.20000000
    0.40000000   -0.30000000    0.20000000
    0.50000000   -0.30000000    0.20000000
   -0.40000000   -0.30000000    0.20000000
   -0.30000000   -0.30000000    0.20000000
   -0.20000000   -0.30000000    0.20000000
   -0.10000000   -0.30000000    0.20000000
    0.00000000   -0.25000000    0.20000000
    0.10000000   -0.25000000    0.20000000
    0.20000000   -0.25000000    0.20000000
    0.30000000   -0.25000000    0.20000000
    0.40000000   -0.25000000    0.20000000
    0.50000000   -0.25000000    0.20000000
   -0.40000000   -0.25000000    0.20000000
   -0.30000000   -0.25000000    0.20000000
   -0.20000000   -0.25000000    0.20000000
   -0.10000000   -0.25000000    0.20000000
    0.00000000   -0.20000000    0.20000000
    0.10000000   -0.20000000    0.20000000
    0.20000000   -0.20000000    0.20000000
    0.30000000   -0.20000000    0.20000000
    0.40000000   -0.20000000    0.20000000
    0.50000000   -0.20000000    0.20000000
   -0.40000000   -0.20000000    0.20000000
   -0.30000000   -0.20000000    0.20000000
   -0.20000000   -0.20000000    0.20000000
   -0.10000000   -0.20000000    0.20000000
    0.00000000   -0.15000000    0.20000000
    0.10000000   -0.15000000    0.20000000
    0.20000000   -0.15000000    0.20000000
    0.30000000   -0.15000000    0.20000000
    0.40000000   -0.15000000    0.20000000
    0.50000000   -0.15000000    0.20000000
   -0.40000000   -0.15000000    0.20000000
   -0.30000000   -0.15000000    0.20000000
   -0.20000000   -0.15000000    0.20000000
   -0.10000000   -0.15000000    0.20000000
    0.00000000   -0.10000000    0.20000000
    0.10000000   -0.10000000    0.20000000
    0.20000000   -0.10000000    0.20000000
    0.30000000   -0.10000000    0.20000000
    0.40000000   -0.10000000    0.20000000
    0.50000000   -0.10000000    0.20000000
   -0.40000000   -0.10000000    0.20000000
   -0.30000000   -0.10000000    0.20000000
   -0.20000000   -0.10000000    0.20000000
   -0.10000000   -0.10000000    0.20000000
    0.00000000   -0.05000000    0.20000000
    0.10000000   -0.05000000    0.20000000
    0.20000000   -0.05000000    0.20000000
    0.30000000   -0.05000000    0.20000000
    0.40000000   -0.05000000    0.20000000
    0.50000000   -0.05000000    0.20000000
   -0.40000000   -0.05000000    0.20000000
   -0.30000000   -0.05000000    0.20000000
   -0.20000000   -0.05000000    0.20000000
   -0.10000000   -0.05000000    0.20000000
    0.00000000    0.00000000    0.40000000
    0.10000000    0.00000000    0.40000000
    0.20000000    0.00000000    0.40000000
    0.30000000    0.00000000    0.40000000
    0.40000000    0.00000000    0.40000000
    0.50000000    0.00000000    0.40000000
   -0.40000000    0.00000000    0.40000000
   -0.30000000    0.00000000    0.40000000
   -0.20000000    0.00000000    0.40000000
   -0.10000000    0.00000000    0.40000000
    0.00000000    0.05000000    0.40000000
    0.10000000    0.05000000    0.40000000
    0.20000000    0.05000000    0.40000000
    0.30000000    0.05000000    0.40000000
    0.40000000    0.05000000    0.40000000
    0.50000000    0.05000000    0.40000000
   -0.40000000    0.05000000    0.40000000
   -0.30000000    0.05000000    0.40000000
   -0.20000000    0.05000000    0.40000000
   -0.10000000    0.05000000    0.40000000
    0.00000000    0.10000000    0.40000000
    0.10000000    0.10000000    0.40000000
    0.20000000    0.10000000    0.40000000
    0.30000000    0.10000000    0.40000000
    0.40000000    0.10000000    0.40000000
    0.50000000    0.10000000    0.40000000
   -0.40000000    0.10000000    0.40000000
   -0.30000000    0.10000000    0.40000000
   -0.20000000    0.10000000    0.40000000
   -0.10000000    0.10000000    0.40000000
    0.00000000    0.15000000    0.40000000
    0.10000000    0.15000000    0.40000000
    0.20000000    0.15000000    0.40000000
    0.30000000    0.15000000    0.40000000
    0.40000000    0.15000000    0.40000000
    0.50000000    0.15000000    0.40000000
   -0.40000000    0.15000000    0.40000000
   -0.30000000    0.15000000    0.40000000
   -0.20000000    0.15000000    0.40000000
   -0.10000000    0.15000000    0.40000000
    0.00000000    0.20000000    0.40000000
    0.10000000    0.20000000    0.40000000
    0.20000000    0.20000000    0.40000000
    0.30000000    0.20000000    0.40000000
    0.40000000    0.20000000    0.40000000
    0.50000000    0.20000000    0.40000000
   -0.40000000    0.20000000    0.40000000
   -0.30000000    0.20000000    0.40000000
   -0.20000000    0.20000000    0.40000000
   -0.10000000    0.20000000    0.40000000
    0.00000000    0.25000000    0.40000000
    0.10000000    0.25000000    0.40000000
    0.20000000    0.25000000    0.40000000
    0.30000000    0.25000000    0.40000000
    0.40000000    0.25000000    0.40000000
    0.50000000    0.25000000    0.40000000
   -0.40000000    0.25000000    0.40000000
   -0.30000000    0.25000000    0.40000000
   -0.20000000    0.25000000    0.40000000
   -0.10000000    0.25000000    0.40000000
    0.00000000    0.30000000    0.40000000
    0.10000000    0.30000000    0.40000000
    0.20000000    0.30000000    0.40000000
    0.30000000    0.30000000    0.40000000
    0.40000000    0.30000000    0.40000000
    0.50000000    0.30000000    0.40000000
   -0.40000000    0.30000000    0.40000000
   -0.30000000    0.30000000    0.40000000
   -0.20000000    0.30000000    0.40000000
   -0.10000000    0.30000000    0.40000000
    0.00000000    0.35000000    0.40000000
    0.10000000    0.35000000    0.40000000
    0.20000000    0.35000000    0.40000000
    0.30000000    0.35000000    0.40000000
    0.40000000    0.35000000    0.40000000
    0.50000000    0.35000000    0.40000000
   -0.40000000    0.35000000    0.40000000
   -0.30000000    0.35000000    0.40000000
   -0.20000000    0.35000000    0.40000000
   -0.10000000    0.35000000    0.40000000
    0.00000000    0.40000000    0.40000000
    0.10000000    0.40000000    0.40000000
    0.20000000    0.40000000    0.40000000
    0.30000000    0.40000000    0.40000000
    0.40000000    0.40000000    0.40000000
    0.50000000    0.40000000    0.40000000
   -0.40000000    0.40000000    0.40000000
   -0.30000000    0.40000000    0.40000000
   -0.20000000    0.40000000    0.40000000
   -0.10000000    0.40000000    0.40000000
    0.00000000    0.45000000    0.40000000
    0.10000000    0.45000000    0.40000000
    0.20000000    0.45000000    0.40000000
    0.30000000    0.45000000    0.40000000
    0.40000000    0.45000000    0.40000000
    0.50000000    0.45000000    0.40000000
   -0.40000000    0.45000000    0.40000000
   -0.30000000    0.45000000    0.40000000
   -0.20000000    0.45000000    0.40000000
   -0.10000000    0.45000000    0.40000000
    0.00000000    0.50000000    0.40000000
    0.10000000    0.50000000    0.40000000
    0.20000000    0.50000000    0.40000000
    0.30000000    0.50000000    0.40000000
    0.40000000    0.50000000    0.40000000
    0.50000000    0.50000000    0.40000000
   -0.40000000    0.50000000    0.40000000
   -0.30000000    0.50000000    0.40000000
   -0.20000000    0.50000000    0.40000000
   -0.10000000    0.50000000    0.40000000
    0.00000000   -0.45000000    0.40000000
    0.10000000   -0.45000000    0.40000000
    0.20000000   -0.45000000    0.40000000
    0.30000000   -0.45000000    0.40000000
    0.40000000   -0.45000000    0.40000000
    0.50000000   -0.45000000    0.40000000
   -0.40000000   -0.45000000    0.40000000
   -0.30000000   -0.45000000    0.40000000
   -0.20000000   -0.45000000    0.40000000
   -0.10000000   -0.45000000    0.40000000
    0.00000000   -0.40000000    0.40000000
    0.10000000   -0.40000000    0.40000000
    0.20000000   -0.40000000    0.40000000
    0.30000000   -0.40000000    0.40000000
    0.40000000   -0.40000000    0.40000000
    0.50000000   -0.40000000    0.40000000
   -0.40000000   -0.40000000    0.40000000
   -0.30000000   -0.40000000    0.40000000
   -0.20000000   -0.40000000    0.40000000
   -0.10000000   -0.40000000    0.40000000
    0.00000000   -0.35000000    0.40000000
    0.10000000   -0.35000000    0.40000000
    0.20000000   -0.35000000    0.40000000
    0.30000000   -0.35000000    0.40000000
    0.40000000   -0.35000000    0.40000000
    0.50000000   -0.35000000    0.40000000
   -0.40000000   -0.35000000    0.40000000
   -0.30000000   -0.35000000    0.40000000
   -0.20000000   -0.35000000    0.40000000
   -0.10000000   -0.35000000    0.40000000
    0.00000000   -0.30000000    0.40000000
    0.10000000   -0.30000000    0.40000000
    0.20000000   -0.30000000    0.40000000
    0.30000000   -0.30000000    0.40000000
    0.40000000   -0.30000000    0.40000000
    0.50000000   -0.30000000    0.40000000
   -0.40000000   -0.30000000    0.40000000
   -0.30000000   -0.30000000    0.40000000
   -0.20000000   -0.30000000    0.40000000
   -0.10000000   -0.30000000    0.40000000
    0.00000000   -0.25000000    0.40000000
    0.10000000   -0.25000000    0.40000000
    0.20000000   -0.25000000    0.40000000
    0.30000000   -0.25000000    0.40000000
    0.40000000   -0.25000000    0.40000000
    0.50000000   -0.25000000    0.40000000
   -0.40000000   -0.25000000    0.40000000
   -0.30000000   -0.25000000    0.40000000
   -0.20000000   -0.25000000    0.40000000
   -0.10000000   -0.25000000    0.40000000
    0.00000000   -0.20000000    0.40000000
    0.10000000   -0.20000000    0.40000000
    0.20000000   -0.20000000    0.40000000
    0.30000000   -0.20000000    0.40000000
    0.40000000   -0.20000000    0.40000000
    0.50000000   -0.20000000    0.40000000
   -0.40000000   -0.20000000    0.40000000
   -0.30000000   -0.20000000    0.40000000
   -0.20000000   -0.20000000    0.40000000
   -0.10000000   -0.20000000    0.40000000
    0.00000000   -0.15000000    0.40000000
    0.10000000   -0.15000000    0.40000000
    0.20000000   -0.15000000    0.40000000
    0.30000000   -0.15000000    0.40000000
    0.40000000   -0.15000000    0.40000000
    0.50000000   -0.15000000    0.40000000
   -0.40000000   -0.15000000    0.40000000
   -0.30000000   -0.15000000    0.40000000
   -0.20000000   -0.15000000    0.40000000
   -0.10000000   -0.15000000    0.40000000
    0.00000000   -0.10000000    0.40000000
    0.10000000   -0.10000000    0.40000000
    0.20000000   -0.10000000    0.40000000
    0.30000000   -0.10000000    0.40000000
    0.40000000   -0.10000000    0.40000000
    0.50000000   -0.10000000    0.40000000
   -0.40000000   -0.10000000    0.40000000
   -0.30000000   -0.10000000    0.40000000
   -0.20000000   -0.10000000    0.40000000
   -0.10000000   -0.10000000    0.40000000
    0.00000000   -0.05000000    0.40000000
    0.10000000   -0.05000000    0.40000000
    0.20000000   -0.05000000    0.40000000
    0.30000000   -0.05000000    0.40000000
    0.40000000   -0.05000000    0.40000000
    0.50000000   -0.05000000    0.40000000
   -0.40000000   -0.05000000    0.40000000
   -0.30000000   -0.05000000    0.40000000
   -0.20000000   -0.05000000    0.40000000
   -0.10000000   -0.05000000    0.40000000
    0.00000000    0.00000000   -0.40000000
    0.10000000    0.00000000   -0.40000000
    0.20000000    0.00000000   -0.40000000
    0.30000000    0.00000000   -0.40000000
    0.40000000    0.00000000   -0.40000000
    0.50000000    0.00000000   -0.40000000
   -0.40000000    0.00000000   -0.40000000
   -0.30000000    0.00000000   -0.40000000
   -0.20000000    0.00000000   -0.40000000
   -0.10000000    0.00000000   -0.40000000
    0.00000000    0.05000000   -0.40000000
    0.10000000    0.05000000   -0.40000000
    0.20000000    0.05000000   -0.40000000
    0.30000000    0.05000000   -0.40000000
    0.40000000    0.05000000   -0.40000000
    0.50000000    0.05000000   -0.40000000
   -0.40000000    0.05000000   -0.40000000
   -0.30000000    0.05000000   -0.40000000
   -0.20000000    0.05000000   -0.40000000
   -0.10000000    0.05000000   -0.40000000
    0.00000000    0.10000000   -0.40000000
    0.10000000    0.10000000   -0.40000000
    0.20000000    0.10000000   -0.40000000
    0.30000000    0.10000000   -0.40000000
    0.40000000    0.10000000   -0.40000000
    0.50000000    0.10000000   -0.40000000
   -0.40000000    0.10000000   -0.40000000
   -0.30000000    0.10000000   -0.40000000
   -0.20000000    0.10000000   -0.40000000
   -0.10000000    0.10000000   -0.40000000
    0.00000000    0.15000000   -0.40000000
    0.10000000    0.15000000   -0.40000000
    0.20000000    0.15000000   -0.40000000
    0.30000000    0.15000000   -0.40000000
    0.40000000    0.15000000   -0.40000000
    0.50000000    0.15000000   -0.40000000
   -0.40000000    0.15000000   -0.40000000
   -0.30000000    0.15000000   -0.40000000
   -0.20000000    0.15000000   -0.40000000
   -0.10000000    0.15000000   -0.40000000
    0.00000000    0.20000000   -0.40000000
    0.10000000    0.20000000   -0.40000000
    0.20000000    0.20000000   -0.40000000
    0.30000000    0.20000000   -0.40000000
    0.40000000    0.20000000   -0.40000000
    0.50000000    0.20000000   -0.40000000
   -0.40000000    0.20000000   -0.40000000
   -0.30000000    0.20000000   -0.40000000
   -0.20000000    0.20000000   -0.40000000
   -0.10000000    0.20000000   -0.40000000
    0.00000000    0.25000000   -0.40000000
    0.10000000    0.25000000   -0.40000000
    0.20000000    0.25000000   -0.40000000
    0.30000000    0.25000000   -0.40000000
    0.40000000    0.25000000   -0.40000000
    0.50000000    0.25000000   -0.40000000
   -0.40000000    0.25000000   -0.40000000
   -0.30000000    0.25000000   -0.40000000
   -0.20000000    0.25000000   -0.40000000
   -0.10000000    0.25000000   -0.40000000
    0.00000000    0.30000000   -0.40000000
    0.10000000    0.30000000   -0.40000000
    0.20000000    0.30000000   -0.40000000
    0.30000000    0.30000000   -0.40000000
    0.40000000    0.30000000   -0.40000000
    0.50000000    0.30000000   -0.40000000
   -0.40000000    0.30000000   -0.40000000
   -0.30000000    0.30000000   -0.40000000
   -0.20000000    0.30000000   -0.40000000
   -0.10000000    0.30000000   -0.40000000
    0.00000000    0.35000000   -0.40000000
    0.10000000    0.35000000   -0.40000000
    0.20000000    0.35000000   -0.40000000
    0.30000000    0.35000000   -0.40000000
    0.40000000    0.35000000   -0.40000000
    0.50000000    0.35000000   -0.40000000
   -0.40000000    0.35000000   -0.40000000
   -0.30000000    0.35000000   -0.40000000
   -0.20000000    0.35000000   -0.40000000
   -0.10000000    0.35000000   -0.40000000
    0.00000000    0.40000000   -0.40000000
    0.10000000    0.40000000   -0.40000000
    0.20000000    0.40000000   -0.40000000
    0.30000000    0.40000000   -0.40000000
    0.40000000    0.40000000   -0.40000000
    0.50000000    0.40000000   -0.40000000
   -0.40000000    0.40000000   -0.40000000
   -0.30000000    0.40000000   -0.40000000
   -0.20000000    0.40000000   -0.40000000
   -0.10000000    0.40000000   -0.40000000
    0.00000000    0.45000000   -0.40000000
    0.10000000    0.45000000   -0.40000000
    0.20000000    0.45000000   -0.40000000
    0.30000000    0.45000000   -0.40000000
    0.40000000    0.45000000   -0.40000000
    0.50000000    0.45000000   -0.40000000
   -0.40000000    0.45000000   -0.40000000
   -0.30000000    0.45000000   -0.40000000
   -0.20000000    0.45000000   -0.40000000
   -0.10000000    0.45000000   -0.40000000
    0.00000000    0.50000000   -0.40000000
    0.10000000    0.50000000   -0.40000000
    0.20000000    0.50000000   -0.40000000
    0.30000000    0.50000000   -0.40000000
    0.40000000    0.50000000   -0.40000000
    0.50000000    0.50000000   -0.40000000
   -0.40000000    0.50000000   -0.40000000
   -0.30000000    0.50000000   -0.40000000
   -0.20000000    0.50000000   -0.40000000
   -0.10000000    0.50000000   -0.40000000
    0.00000000   -0.45000000   -0.40000000
    0.10000000   -0.45000000   -0.40000000
    0.20000000   -0.45000000   -0.40000000
    0.30000000   -0.45000000   -0.40000000
    0.40000000   -0.45000000   -0.40000000
    0.50000000   -0.45000000   -0.40000000
   -0.40000000   -0.45000000   -0.40000000
   -0.30000000   -0.45000000   -0.40000000
   -0.20000000   -0.45000000   -0.40000000
   -0.10000000   -0.45000000   -0.40000000
    0.00000000   -0.40000000   -0.40000000
    0.10000000   -0.40000000   -0.40000000
    0.20000000   -0.40000000   -0.40000000
    0.30000000   -0.40000000   -0.40000000
    0.40000000   -0.40000000   -0.40000000
    0.50000000   -0.40000000   -0.40000000
   -0.40000000   -0.40000000   -0.40000000
   -0.30000000   -0.40000000   -0.40000000
   -0.20000000   -0.40000000   -0.40000000
   -0.10000000   -0.40000000   -0.40000000
    0.00000000   -0.35000000   -0.40000000
    0.10000000   -0.35000000   -0.40000000
    0.20000000   -0.35000000   -0.40000000
    0.30000000   -0.35000000   -0.40000000
    0.40000000   -0.35000000   -0.40000000
    0.50000000   -0.35000000   -0.40000000
   -0.40000000   -0.35000000   -0.40000000
   -0.30000000   -0.35000000   -0.40000000
   -0.20000000   -0.35000000   -0.40000000
   -0.10000000   -0.35000000   -0.40000000
    0.00000000   -0.30000000   -0.40000000
    0.10000000   -0.30000000   -0.40000000
    0.20000000   -0.30000000   -0.40000000
    0.30000000   -0.30000000   -0.40000000
    0.40000000   -0.30000000   -0.40000000
    0.50000000   -0.30000000   -0.40000000
   -0.40000000   -0.30000000   -0.40000000
   -0.30000000   -0.30000000   -0.40000000
   -0.20000000   -0.30000000   -0.40000000
   -0.10000000   -0.30000000   -0.40000000
    0.00000000   -0.25000000   -0.40000000
    0.10000000   -0.25000000   -0.40000000
    0.20000000   -0.25000000   -0.40000000
    0.30000000   -0.25000000   -0.40000000
    0.40000000   -0.25000000   -0.40000000
    0.50000000   -0.25000000   -0.40000000
   -0.40000000   -0.25000000   -0.40000000
   -0.30000000   -0.25000000   -0.40000000
   -0.20000000   -0.25000000   -0.40000000
   -0.10000000   -0.25000000   -0.40000000
    0.00000000   -0.20000000   -0.40000000
    0.10000000   -0.20000000   -0.40000000
    0.20000000   -0.20000000   -0.40000000
    0.30000000   -0.20000000   -0.40000000
    0.40000000   -0.20000000   -0.40000000
    0.50000000   -0.20000000   -0.40000000
   -0.40000000   -0.20000000   -0.40000000
   -0.30000000   -0.20000000   -0.40000000
   -0.20000000   -0.20000000   -0.40000000
   -0.10000000   -0.20000000   -0.40000000
    0.00000000   -0.15000000   -0.40000000
    0.10000000   -0.15000000   -0.40000000
    0.20000000   -0.15000000   -0.40000000
    0.30000000   -0.15000000   -0.40000000
    0.40000000   -0.15000000   -0.40000000
    0.50000000   -0.15000000   -0.40000000
   -0.40000000   -0.15000000   -0.40000000
   -0.30000000   -0.15000000   -0.40000000
   -0.20000000   -0.15000000   -0.40000000
   -0.10000000   -0.15000000   -0.40000000
    0.00000000   -0.10000000   -0.40000000
    0.10000000   -0.10000000   -0.40000000
    0.20000000   -0.10000000   -0.40000000
    0.30000000   -0.10000000   -0.40000000
    0.40000000   -0.10000000   -0.40000000
    0.50000000   -0.10000000   -0.40000000
   -0.40000000   -0.10000000   -0.40000000
   -0.30000000   -0.10000000   -0.40000000
   -0.20000000   -0.10000000   -0.40000000
   -0.10000000   -0.10000000   -0.40000000
    0.00000000   -0.05000000   -0.40000000
    0.10000000   -0.05000000   -0.40000000
    0.20000000   -0.05000000   -0.40000000
    0.30000000   -0.05000000   -0.40000000
    0.40000000   -0.05000000   -0.40000000
    0.50000000   -0.05000000   -0.40000000
   -0.40000000   -0.05000000   -0.40000000
   -0.30000000   -0.05000000   -0.40000000
   -0.20000000   -0.05000000   -0.40000000
   -0.10000000   -0.05000000   -0.40000000
    0.00000000    0.00000000   -0.20000000
    0.10000000    0.00000000   -0.20000000
    0.20000000    0.00000000   -0.20000000
    0.30000000    0.00000000   -0.20000000
    0.40000000    0.00000000   -0.20000000
    0.50000000    0.00000000   -0.20000000
   -0.40000000    0.00000000   -0.20000000
   -0.30000000    0.00000000   -0.20000000
   -0.20000000    0.00000000   -0.20000000
   -0.10000000    0.00000000   -0.20000000
    0.00000000    0.05000000   -0.20000000
    0.10000000    0.05000000   -0.20000000
    0.20000000    0.05000000   -0.20000000
    0.30000000    0.05000000   -0.20000000
    0.40000000    0.05000000   -0.20000000
    0.50000000    0.05000000   -0.20000000
   -0.40000000    0.05000000   -0.20000000
   -0.30000000    0.05000000   -0.20000000
   -0.20000000    0.05000000   -0.20000000
   -0.10000000    0.05000000   -0.20000000
    0.00000000    0.10000000   -0.20000000
    0.10000000    0.10000000   -0.20000000
    0.20000000    0.10000000   -0.20000000
    0.30000000    0.10000000   -0.20000000
    0.40000000    0.10000000   -0.20000000
    0.50000000    0.10000000   -0.20000000
   -0.40000000    0.10000000   -0.20000000
   -0.30000000    0.10000000   -0.20000000
   -0.20000000    0.10000000   -0.20000000
   -0.10000000    0.10000000   -0.20000000
    0.00000000    0.15000000   -0.20000000
    0.10000000    0.15000000   -0.20000000
    0.20000000    0.15000000   -0.20000000
    0.30000000    0.15000000   -0.20000000
    0.40000000    0.15000000   -0.20000000
    0.50000000    0.15000000   -0.20000000
   -0.40000000    0.15000000   -0.20000000
   -0.30000000    0.15000000   -0.20000000
   -0.20000000    0.15000000   -0.20000000
   -0.10000000    0.15000000   -0.20000000
    0.00000000    0.20000000   -0.20000000
    0.10000000    0.20000000   -0.20000000
    0.20000000    0.20000000   -0.20000000
    0.30000000    0.20000000   -0.20000000
    0.40000000    0.20000000   -0.20000000
    0.50000000    0.20000000   -0.20000000
   -0.40000000    0.20000000   -0.20000000
   -0.30000000    0.20000000   -0.20000000
   -0.20000000    0.20000000   -0.20000000
   -0.10000000    0.20000000   -0.20000000
    0.00000000    0.25000000   -0.20000000
    0.10000000    0.25000000   -0.20000000
    0.20000000    0.25000000   -0.20000000
    0.30000000    0.25000000   -0.20000000
    0.40000000    0.25000000   -0.20000000
    0.50000000    0.25000000   -0.20000000
   -0.40000000    0.25000000   -0.20000000
   -0.30000000    0.25000000   -0.20000000
   -0.20000000    0.25000000   -0.20000000
   -0.10000000    0.25000000   -0.20000000
    0.00000000    0.30000000   -0.20000000
    0.10000000    0.30000000   -0.20000000
    0.20000000    0.30000000   -0.20000000
    0.30000000    0.30000000   -0.20000000
    0.40000000    0.30000000   -0.20000000
    0.50000000    0.30000000   -0.20000000
   -0.40000000    0.30000000   -0.20000000
   -0.30000000    0.30000000   -0.20000000
   -0.20000000    0.30000000   -0.20000000
   -0.10000000    0.30000000   -0.20000000
    0.00000000    0.35000000   -0.20000000
    0.10000000    0.35000000   -0.20000000
    0.20000000    0.35000000   -0.20000000
    0.30000000    0.35000000   -0.20000000
    0.40000000    0.35000000   -0.20000000
    0.50000000    0.35000000   -0.20000000
   -0.40000000    0.35000000   -0.20000000
   -0.30000000    0.35000000   -0.20000000
   -0.20000000    0.35000000   -0.20000000
   -0.10000000    0.35000000   -0.20000000
    0.00000000    0.40000000   -0.20000000
    0.10000000    0.40000000   -0.20000000
    0.20000000    0.40000000   -0.20000000
    0.30000000    0.40000000   -0.20000000
    0.40000000    0.40000000   -0.20000000
    0.50000000    0.40000000   -0.20000000
   -0.40000000    0.40000000   -0.20000000
   -0.30000000    0.40000000   -0.20000000
   -0.20000000    0.40000000   -0.20000000
   -0.10000000    0.40000000   -0.20000000
    0.00000000    0.45000000   -0.20000000
    0.10000000    0.45000000   -0.20000000
    0.20000000    0.45000000   -0.20000000
    0.30000000    0.45000000   -0.20000000
    0.40000000    0.45000000   -0.20000000
    0.50000000    0.45000000   -0.20000000
   -0.40000000    0.45000000   -0.20000000
   -0.30000000    0.45000000   -0.20000000
   -0.20000000    0.45000000   -0.20000000
   -0.10000000    0.45000000   -0.20000000
    0.00000000    0.50000000   -0.20000000
    0.10000000    0.50000000   -0.20000000
    0.20000000    0.50000000   -0.20000000
    0.30000000    0.50000000   -0.20000000
    0.40000000    0.50000000   -0.20000000
    0.50000000    0.50000000   -0.20000000
   -0.40000000    0.50000000   -0.20000000
   -0.30000000    0.50000000   -0.20000000
   -0.20000000    0.50000000   -0.20000000
   -0.10000000    0.50000000   -0.20000000
    0.00000000   -0.45000000   -0.20000000
    0.10000000   -0.45000000   -0.20000000
    0.20000000   -0.45000000   -0.20000000
    0.30000000   -0.45000000   -0.20000000
    0.40000000   -0.45000000   -0.20000000
    0.50000000   -0.45000000   -0.20000000
   -0.40000000   -0.45000000   -0.20000000
   -0.30000000   -0.45000000   -0.20000000
   -0.20000000   -0.45000000   -0.20000000
   -0.10000000   -0.45000000   -0.20000000
    0.00000000   -0.40000000   -0.20000000
    0.10000000   -0.40000000   -0.20000000
    0.20000000   -0.40000000   -0.20000000
    0.30000000   -0.40000000   -0.20000000
    0.40000000   -0.40000000   -0.20000000
    0.50000000   -0.40000000   -0.20000000
   -0.40000000   -0.40000000   -0.20000000
   -0.30000000   -0.40000000   -0.20000000
   -0.20000000   -0.40000000   -0.20000000
   -0.10000000   -0.40000000   -0.20000000
    0.00000000   -0.35000000   -0.20000000
    0.10000000   -0.35000000   -0.20000000
    0.20000000   -0.35000000   -0.20000000
    0.30000000   -0.35000000   -0.20000000
    0.40000000   -0.35000000   -0.20000000
    0.50000000   -0.35000000   -0.20000000
   -0.40000000   -0.35000000   -0.20000000
   -0.30000000   -0.35000000   -0.20000000
   -0.20000000   -0.35000000   -0.20000000
   -0.10000000   -0.35000000   -0.20000000
    0.00000000   -0.30000000   -0.20000000
    0.10000000   -0.30000000   -0.20000000
    0.20000000   -0.30000000   -0.20000000
    0.30000000   -0.30000000   -0.20000000
    0.40000000   -0.30000000   -0.20000000
    0.50000000   -0.30000000   -0.20000000
   -0.40000000   -0.30000000   -0.20000000
   -0.30000000   -0.30000000   -0.20000000
   -0.20000000   -0.30000000   -0.20000000
   -0.10000000   -0.30000000   -0.20000000
    0.00000000   -0.25000000   -0.20000000
    0.10000000   -0.25000000   -0.20000000
    0.20000000   -0.25000000   -0.20000000
    0.30000000   -0.25000000   -0.20000000
    0.40000000   -0.25000000   -0.20000000
    0.50000000   -0.25000000   -0.20000000
   -0.40000000   -0.25000000   -0.20000000
   -0.30000000   -0.25000000   -0.20000000
   -0.20000000   -0.25000000   -0.20000000
   -0.10000000   -0.25000000   -0.20000000
    0.00000000   -0.20000000   -0.20000000
    0.10000000   -0.20000000   -0.20000000
    0.20000000   -0.20000000   -0.20000000
    0.30000000   -0.20000000   -0.20000000
    0.40000000   -0.20000000   -0.20000000
    0.50000000   -0.20000000   -0.20000000
   -0.40000000   -0.20000000   -0.20000000
   -0.30000000   -0.20000000   -0.20000000
   -0.20000000   -0.20000000   -0.20000000
   -0.10000000   -0.20000000   -0.20000000
    0.00000000   -0.15000000   -0.20000000
    0.10000000   -0.15000000   -0.20000000
    0.20000000   -0.15000000   -0.20000000
    0.30000000   -0.15000000   -0.20000000
    0.40000000   -0.15000000   -0.20000000
    0.50000000   -0.15000000   -0.20000000
   -0.40000000   -0.15000000   -0.20000000
   -0.30000000   -0.15000000   -0.20000000
   -0.20000000   -0.15000000   -0.20000000
   -0.10000000   -0.15000000   -0.20000000
    0.00000000   -0.10000000   -0.20000000
    0.10000000   -0.10000000   -0.20000000
    0.20000000   -0.10000000   -0.20000000
    0.30000000   -0.10000000   -0.20000000
    0.40000000   -0.10000000   -0.20000000
    0.50000000   -0.10000000   -0.20000000
   -0.40000000   -0.10000000   -0.20000000
   -0.30000000   -0.10000000   -0.20000000
   -0.20000000   -0.10000000   -0.20000000
   -0.10000000   -0.10000000   -0.20000000
    0.00000000   -0.05000000   -0.20000000
    0.10000000   -0.05000000   -0.20000000
    0.20000000   -0.05000000   -0.20000000
    0.30000000   -0.05000000   -0.20000000
    0.40000000   -0.05000000   -0.20000000
    0.50000000   -0.05000000   -0.20000000
   -0.40000000   -0.05000000   -0.20000000
   -0.30000000   -0.05000000   -0.20000000
   -0.20000000   -0.05000000   -0.20000000
   -0.10000000   -0.05000000   -0.20000000
end kpoints

begin projections
    44
   0.18300    0.25000    0.00700     2  1  1
    0.0000000  0.0000000  1.0000000   1.0000000  0.0000000  0.0000000    1.00
   0.18300    0.25000    0.00700     2  2  1
    0.0000000  0.0000000  1.0000000   1.0000000  0.0000000  0.0000000    1.00
   0.18300    0.25000    0.00700     2  3  1
    0.0000000  0.0000000  1.0000000   1.0000000  0.0000000  0.0000000    1.00
   0.18300    0.25000    0.00700     2  4  1
    0.0000000  0.0000000  1.0000000   1.0000000  0.0000000  0.0000000    1.00
   0.18300    0.25000    0.00700     2  5  1
    0.0000000  0.0000000  1.0000000   1.0000000  0.0000000  0.0000000    1.00
  -0.18300   -0.25000   -0.00700     2  1  1
    0.0000000  0.0000000  1.0000000   1.0000000  0.0000000  0.0000000    1.00
  -0.18300   -0.25000   -0.00700     2  2  1
    0.0000000  0.0000000  1.0000000   1.0000000  0.0000000  0.0000000    1.00
  -0.18300   -0.25000   -0.00700     2  3  1
    0.0000000  0.0000000  1.0000000   1.0000000  0.0000000  0.0000000    1.00
  -0.18300   -0.25000   -0.00700     2  4  1
    0.0000000  0.0000000  1.0000000   1.0000000  0.0000000  0.0000000    1.00
  -0.18300   -0.25000   -0.00700     2  5  1
    0.0000000  0.0000000  1.0000000   1.0000000  0.0000000  0.0000000    1.00
   0.31800    0.75000    0.50700     2  1  1
    0.0000000  0.0000000  1.0000000   1.0000000  0.0000000  0.0000000    1.00
   0.31800    0.75000    0.50700     2  2  1
    0.0000000  0.0000000  1.0000000   1.0000000  0.0000000  0.0000000    1.00
   0.31800    0.75000    0.50700     2  3  1
    0.0000000  0.0000000  1.0000000   1.0000000  0.0000000  0.0000000    1.00
   0.31800    0.75000    0.50700     2  4  1
    0.0000000  0.0000000  1.0000000   1.0000000  0.0000000  0.0000000    1.00
   0.31800    0.75000    0.50700     2  5  1
    0.0000000  0.0000000  1.0000000   1.0000000  0.0000000  0.0000000    1.00
  -0.31800   -0.75000   -0.50700     2  1  1
    0.0000000  0.0000000  1.0000000   1.0000000  0.0000000  0.0000000    1.00
  -0.31800   -0.75000   -0.50700     2  2  1
    0.0000000  0.0000000  1.0000000   1.0000000  0.0000000  0.0000000    1.00
  -0.31800   -0.75000   -0.50700     2  3  1
    0.0000000  0.0000000  1.0000000   1.0000000  0.0000000  0.0000000    1.00
  -0.31800   -0.75000   -0.50700     2  4  1
    0.0000000  0.0000000  1.0000000   1.0000000  0.0000000  0.0000000    1.00
  -0.31800   -0.75000   -0.50700     2  5  1
    0.0000000  0.0000000  1.0000000   1.0000000  0.0000000  0.0000000    1.00
   0.58900    0.25000    0.10400     1  1  1
    0.0000000  0.0000000  1.0000000   1.0000000  0.0000000  0.0000000    1.00
   0.58900    0.25000    0.10400     1  2  1
    0.0000000  0.0000000  1.0000000   1.0000000  0.0000000  0.0000000    1.00
   0.58900    0.25000    0.10400     1  3  1
    0.0000000  0.0000000  1.0000000   1.0000000  0.0000000  0.0000000    1.00
  -0.58900   -0.25000   -0.10400     1  1  1
    0.0000000  0.0000000  1.0000000   1.0000000  0.0000000  0.0000000    1.00
  -0.58900   -0.25000   -0.10400     1  2  1
    0.0000000  0.0000000  1.0000000   1.0000000  0.0000000  0.0000000    1.00
  -0.58900   -0.25000   -0.10400     1  3  1
    0.0000000  0.0000000  1.0000000   1.0000000  0.0000000  0.0000000    1.00
   0.05600    0.25000    0.39600     1  1  1
    0.0000000  0.0000000  1.0000000   1.0000000  0.0000000  0.0000000    1.00
   0.05600    0.25000    0.39600     1  2  1
    0.0000000  0.0000000  1.0000000   1.0000000  0.0000000  0.0000000    1.00
   0.05600    0.25000    0.39600     1  3  1
    0.0000000  0.0000000  1.0000000   1.0000000  0.0000000  0.0000000    1.00
  -0.05600   -0.25000   -0.39600     1  1  1
    0.0000000  0.0000000  1.0000000   1.0000000  0.0000000  0.0000000    1.00
  -0.05600   -0.25000   -0.39600     1  2  1
    0.0000000  0.0000000  1.0000000   1.0000000  0.0000000  0.0000000    1.00
  -0.05600   -0.25000   -0.39600     1  3  1
    0.0000000  0.0000000  1.0000000   1.0000000  0.0000000  0.0000000    1.00
   0.09700    0.75000    0.14900     1  1  1
    0.0000000  0.0000000  1.0000000   1.0000000  0.0000000  0.0000000    1.00
   0.09700    0.75000    0.14900     1  2  1
    0.0000000  0.0000000  1.0000000   1.0000000  0.0000000  0.0000000    1.00
   0.09700    0.75000    0.14900     1  3  1
    0.0000000  0.0000000  1.0000000   1.0000000  0.0000000  0.0000000    1.00
  -0.09700   -0.75000   -0.14900     1  1  1
    0.0000000  0.0000000  1.0000000   1.0000000  0.0000000  0.0000000    1.00
  -0.09700   -0.75000   -0.14900     1  2  1
    0.0000000  0.0000000  1.0000000   1.0000000  0.0000000  0.0000000    1.00
  -0.09700   -0.75000   -0.14900     1  3  1
    0.0000000  0.0000000  1.0000000   1.0000000  0.0000000  0.0000000    1.00
   0.55700    0.75000    0.35200     1  1  1
    0.0000000  0.0000000  1.0000000   1.0000000  0.0000000  0.0000000    1.00
   0.55700    0.75000    0.35200     1  2  1
    0.0000000  0.0000000  1.0000000   1.0000000  0.0000000  0.0000000    1.00
   0.55700    0.75000    0.35200     1  3  1
    0.0000000  0.0000000  1.0000000   1.0000000  0.0000000  0.0000000    1.00
  -0.55700   -0.75000   -0.35200     1  1  1
    0.0000000  0.0000000  1.0000000   1.0000000  0.0000000  0.0000000    1.00
  -0.55700   -0.75000   -0.35200     1  2  1
    0.0000000  0.0000000  1.0000000   1.0000000  0.0000000  0.0000000    1.00
  -0.55700   -0.75000   -0.35200     1  3  1
    0.0000000  0.0000000  1.0000000   1.0000000  0.0000000  0.0000000    1.00
end projections

begin nnkpts
   8
     1    11      0   0   0
     1   191      0   0   0
     1   201      0   0   0
     1   801      0   0   0
     1     2      0   0   0
     1    10      0   0   0
     1   210      0   0   0
     1   802      0   0   0
     2    12      0   0   0
     2   192      0   0   0
     2   202      0   0   0
     2   802      0   0   0
     2     1      0   0   0
     2     3      0   0   0
     2   201      0   0   0
     2   803      0   0   0
     3    13      0   0   0
     3   193      0   0   0
     3   203      0   0   0
     3   803      0   0   0
     3     2      0   0   0
     3     4      0   0   0
     3   202      0   0   0
     3   804      0   0   0
     4    14      0   0   0
     4   194      0   0   0
     4   204      0   0   0
     4   804      0   0   0
     4     3      0   0   0
     4     5      0   0   0
     4   203      0   0   0
     4   805      0   0   0
     5    15      0   0   0
     5   195      0   0   0
     5   205      0   0   0
     5   805      0   0   0
     5     4      0   0   0
     5     6      0   0   0
     5   204      0   0   0
     5   806      0   0   0
     6    16      0   0   0
     6   196      0   0   0
     6   206      0   0   0
     6   806      0   0   0
     6     5      0   0   0
     6     7      1   0   0
     6   205      0   0   0
     6   807      1   0   0
     7    17      0   0   0
     7   197      0   0   0
     7   207      0   0   0
     7   807      0   0   0
     7     8      0   0   0
     7     6     -1   0   0
     7   808      0   0   0
     7   206     -1   0   0
     8    18      0   0   0
     8   198      0   0   0
     8   208      0   0   0
     8   808      0   0   0
     8     7      0   0   0
     8     9      0   0   0
     8   207      0   0   0
     8   809      0   0   0
     9    19      0   0   0
     9   199      0   0   0
     9   209      0   0   0
     9   809      0   0   0
     9     8      0   0   0
     9    10      0   0   0
     9   208      0   0   0
     9   810      0   0   0
    10    20      0   0   0
    10   200      0   0   0
    10   210      0   0   0
    10   810      0   0   0
    10     1      0   0   0
    10     9      0   0   0
    10   209      0   0   0
    10   801      0   0   0
    11     1      0   0   0
    11    21      0   0   0
    11   211      0   0   0
    11   811      0   0   0
    11    12      0   0   0
    11    20      0   0   0
    11   220      0   0   0
    11   812      0   0   0
    12     2      0   0   0
    12    22      0   0   0
    12   212      0   0   0
    12   812      0   0   0
    12    11      0   0   0
    12    13      0   0   0
    12   211      0   0   0
    12   813      0   0   0
    13     3      0   0   0
    13    23      0   0   0
    13   213      0   0   0
    13   813      0   0   0
    13    12      0   0   0
    13    14      0   0   0
    13   212      0   0   0
    13   814      0   0   0
    14     4      0   0   0
    14    24      0   0   0
    14   214      0   0   0
    14   814      0   0   0
    14    13      0   0   0
    14    15      0   0   0
    14   213      0   0   0
    14   815      0   0   0
    15     5      0   0   0
    15    25      0   0   0
    15   215      0   0   0
    15   815      0   0   0
    15    14      0   0   0
    15    16      0   0   0
    15   214      0   0   0
    15   816      0   0   0
    16     6      0   0   0
    16    26      0   0   0
    16   216      0   0   0
    16   816      0   0   0
    16    15      0   0   0
    16    17      1   0   0
    16   215      0   0   0
    16   817      1   0   0
    17     7      0   0   0
    17    27      0   0   0
    17   217      0   0   0
    17   817      0   0   0
    17    18      0   0   0
    17    16     -1   0   0
    17   818      0   0   0
    17   216     -1   0   0
    18     8      0   0   0
    18    28      0   0   0
    18   218      0   0   0
    18   818      0   0   0
    18    17      0   0   0
    18    19      0   0   0
    18   217      0   0   0
    18   819      0   0   0
    19     9      0   0   0
    19    29      0   0   0
    19   219      0   0   0
    19   819      0   0   0
    19    18      0   0   0
    19    20      0   0   0
    19   218      0   0   0
    19   820      0   0   0
    20    10      0   0   0
    20    30      0   0   0
    20   220      0   0   0
    20   820      0   0   0
    20    11      0   0   0
    20    19      0   0   0
    20   219      0   0   0
    20   811      0   0   0
    21    11      0   0   0
    21    31      0   0   0
    21   221      0   0   0
    21   821      0   0   0
    21    22      0   0   0
    21    30      0   0   0
    21   230      0   0   0
    21   822      0   0   0
    22    12      0   0   0
    22    32      0   0   0
    22   222      0   0   0
    22   822      0   0   0
    22    21      0   0   0
    22    23      0   0   0
    22   221      0   0   0
    22   823      0   0   0
    23    13      0   0   0
    23    33      0   0   0
    23   223      0   0   0
    23   823      0   0   0
    23    22      0   0   0
    23    24      0   0   0
    23   222      0   0   0
    23   824      0   0   0
    24    14      0   0   0
    24    34      0   0   0
    24   224      0   0   0
    24   824      0   0   0
    24    23      0   0   0
    24    25      0   0   0
    24   223      0   0   0
    24   825      0   0   0
    25    15      0   0   0
    25    35      0   0   0
    25   225      0   0   0
    25   825      0   0   0
    25    24      0   0   0
    25    26      0   0   0
    25   224      0   0   0
    25   826      0   0   0
    26    16      0   0   0
    26    36      0   0   0
    26   226      0   0   0
    26   826      0   0   0
    26    25      0   0   0
    26    27      1   0   0
    26   225      0   0   0
    26   827      1   0   0
    27    17      0   0   0
    27    37      0   0   0
    27   227      0   0   0
    27   827      0   0   0
    27    28      0   0   0
    27    26     -1   0   0
    27   828      0   0   0
    27   226     -1   0   0
    28    18      0   0   0
    28    38      0   0   0
    28   228      0   0   0
    28   828      0   0   0
    28    27      0   0   0
    28    29      0   0   0
    28   227      0   0   0
    28   829      0   0   0
    29    19      0   0   0
    29    39      0   0   0
    29   229      0   0   0
    29   829      0   0   0
    29    28      0   0   0
    29    30      0   0   0
    29   228      0   0   0
    29   830      0   0   0
    30    20      0   0   0
    30    40      0   0   0
    30   230      0   0   0
    30   830      0   0   0
    30    21      0   0   0
    30    29      0   0   0
    30   229      0   0   0
    30   821      0   0   0
    31    21      0   0   0
    31    41      0   0   0
    31   231      0   0   0
    31   831      0   0   0
    31    32      0   0   0
    31    40      0   0   0
    31   240      0   0   0
    31   832      0   0   0
    32    22      0   0   0
    32    42      0   0   0
    32   232      0   0   0
    32   832      0   0   0
    32    31      0   0   0
    32    33      0   0   0
    32   231      0   0   0
    32   833      0   0   0
    33    23      0   0   0
    33    43      0   0   0
    33   233      0   0   0
    33   833      0   0   0
    33    32      0   0   0
    33    34      0   0   0
    33   232      0   0   0
    33   834      0   0   0
    34    24      0   0   0
    34    44      0   0   0
    34   234      0   0   0
    34   834      0   0   0
    34    33      0   0   0
    34    35      0   0   0
    34   233      0   0   0
    34   835      0   0   0
    35    25      0   0   0
    35    45      0   0   0
    35   235      0   0   0
    35   835      0   0   0
    35    34      0   0   0
    35    36      0   0   0
    35   234      0   0   0
    35   836      0   0   0
    36    26      0   0   0
    36    46      0   0   0
    36   236      0   0   0
    36   836      0   0   0
    36    35      0   0   0
    36    37      1   0   0
    36   235      0   0   0
    36   837      1   0   0
    37    27      0   0   0
    37    47      0   0   0
    37   237      0   0   0
    37   837      0   0   0
    37    38      0   0   0
    37    36     -1   0   0
    37   838      0   0   0
    37   236     -1   0   0
    38    28      0   0   0
    38    48      0   0   0
    38   238      0   0   0
    38   838      0   0   0
    38    37      0   0   0
    38    39      0   0   0
    38   237      0   0   0
    38   839      0   0   0
    39    29      0   0   0
    39    49      0   0   0
    39   239      0   0   0
    39   839      0   0   0
    39    38      0   0   0
    39    40      0   0   0
    39   238      0   0   0
    39   840      0   0   0
    40    30      0   0   0
    40    50      0   0   0
    40   240      0   0   0
    40   840      0   0   0
    40    31      0   0   0
    40    39      0   0   0
    40   239      0   0   0
    40   831      0   0   0
    41    31      0   0   0
    41    51      0   0   0
    41   241      0   0   0
    41   841      0   0   0
    41    42      0   0   0
    41    50      0   0   0
    41   250      0   0   0
    41   842      0   0   0
    42    32      0   0   0
    42    52      0   0   0
    42   242      0   0   0
    42   842      0   0   0
    42    41      0   0   0
    42    43      0   0   0
    42   241      0   0   0
    42   843      0   0   0
    43    33      0   0   0
    43    53      0   0   0
    43   243      0   0   0
    43   843      0   0   0
    43    42      0   0   0
    43    44      0   0   0
    43   242      0   0   0
    43   844      0   0   0
    44    34      0   0   0
    44    54      0   0   0
    44   244      0   0   0
    44   844      0   0   0
    44    43      0   0   0
    44    45      0   0   0
    44   243      0   0   0
    44   845      0   0   0
    45    35      0   0   0
    45    55      0   0   0
    45   245      0   0   0
    45   845      0   0   0
    45    44      0   0   0
    45    46      0   0   0
    45   244      0   0   0
    45   846      0   0   0
    46    36      0   0   0
    46    56      0   0   0
    46   246      0   0   0
    46   846      0   0   0
    46    45      0   0   0
    46    47      1   0   0
    46   245      0   0   0
    46   847      1   0   0
    47    37      0   0   0
    47    57      0   0   0
    47   247      0   0   0
    47   847      0   0   0
    47    48      0   0   0
    47    46     -1   0   0
    47   848      0   0   0
    47   246     -1   0   0
    48    38      0   0   0
    48    58      0   0   0
    48   248      0   0   0
    48   848      0   0   0
    48    47      0   0   0
    48    49      0   0   0
    48   247      0   0   0
    48   849      0   0   0
    49    39      0   0   0
    49    59      0   0   0
    49   249      0   0   0
    49   849      0   0   0
    49    48      0   0   0
    49    50      0   0   0
    49   248      0   0   0
    49   850      0   0   0
    50    40      0   0   0
    50    60      0   0   0
    50   250      0   0   0
    50   850      0   0   0
    50    41      0   0   0
    50    49      0   0   0
    50   249      0   0   0
    50   841      0   0   0
    51    41      0   0   0
    51    61      0   0   0
    51   251      0   0   0
    51   851      0   0   0
    51    52      0   0   0
    51    60      0   0   0
    51   260      0   0   0
    51   852      0   0   0
    52    42      0   0   0
    52    62      0   0   0
    52   252      0   0   0
    52   852      0   0   0
    52    51      0   0   0
    52    53      0   0   0
    52   251      0   0   0
    52   853      0   0   0
    53    43      0   0   0
    53    63      0   0   0
    53   253      0   0   0
    53   853      0   0   0
    53    52      0   0   0
    53    54      0   0   0
    53   252      0   0   0
    53   854      0   0   0
    54    44      0   0   0
    54    64      0   0   0
    54   254      0   0   0
    54   854      0   0   0
    54    53      0   0   0
    54    55      0   0   0
    54   253      0   0   0
    54   855      0   0   0
    55    45      0   0   0
    55    65      0   0   0
    55   255      0   0   0
    55   855      0   0   0
    55    54      0   0   0
    55    56      0   0   0
    55   254      0   0   0
    55   856      0   0   0
    56    46      0   0   0
    56    66      0   0   0
    56   256      0   0   0
    56   856      0   0   0
    56    55      0   0   0
    56    57      1   0   0
    56   255      0   0   0
    56   857      1   0   0
    57    47      0   0   0
    57    67      0   0   0
    57   257      0   0   0
    57   857      0   0   0
    57    58      0   0   0
    57    56     -1   0   0
    57   858      0   0   0
    57   256     -1   0   0
    58    48      0   0   0
    58    68      0   0   0
    58   258      0   0   0
    58   858      0   0   0
    58    57      0   0   0
    58    59      0   0   0
    58   257      0   0   0
    58   859      0   0   0
    59    49      0   0   0
    59    69      0   0   0
    59   259      0   0   0
    59   859      0   0   0
    59    58      0   0   0
    59    60      0   0   0
    59   258      0   0   0
    59   860      0   0   0
    60    50      0   0   0
    60    70      0   0   0
    60   260      0   0   0
    60   860      0   0   0
    60    51      0   0   0
    60    59      0   0   0
    60   259      0   0   0
    60   851      0   0   0
    61    51      0   0   0
    61    71      0   0   0
    61   261      0   0   0
    61   861      0   0   0
    61    62      0   0   0
    61    70      0   0   0
    61   270      0   0   0
    61   862      0   0   0
    62    52      0   0   0
    62    72      0   0   0
    62   262      0   0   0
    62   862      0   0   0
    62    61      0   0   0
    62    63      0   0   0
    62   261      0   0   0
    62   863      0   0   0
    63    53      0   0   0
    63    73      0   0   0
    63   263      0   0   0
    63   863      0   0   0
    63    62      0   0   0
    63    64      0   0   0
    63   262      0   0   0
    63   864      0   0   0
    64    54      0   0   0
    64    74      0   0   0
    64   264      0   0   0
    64   864      0   0   0
    64    63      0   0   0
    64    65      0   0   0
    64   263      0   0   0
    64   865      0   0   0
    65    55      0   0   0
    65    75      0   0   0
    65   265      0   0   0
    65   865      0   0   0
    65    64      0   0   0
    65    66      0   0   0
    65   264      0   0   0
    65   866      0   0   0
    66    56      0   0   0
    66    76      0   0   0
    66   266      0   0   0
    66   866      0   0   0
    66    65      0   0   0
    66    67      1   0   0
    66   265      0   0   0
    66   867      1   0   0
    67    57      0   0   0
    67    77      0   0   0
    67   267      0   0   0
    67   867      0   0   0
    67    68      0   0   0
    67    66     -1   0   0
    67   868      0   0   0
    67   266     -1   0   0
    68    58      0   0   0
    68    78      0   0   0
    68   268      0   0   0
    68   868      0   0   0
    68    67      0   0   0
    68    69      0   0   0
    68   267      0   0   0
    68   869      0   0   0
    69    59      0   0   0
    69    79      0   0   0
    69   269      0   0   0
    69   869      0   0   0
    69    68      0   0   0
    69    70      0   0   0
    69   268      0   0   0
    69   870      0   0   0
    70    60      0   0   0
    70    80      0   0   0
    70   270      0   0   0
    70   870      0   0   0
    70    61      0   0   0
    70    69      0   0   0
    70   269      0   0   0
    70   861      0   0   0
    71    61      0   0   0
    71    81      0   0   0
    71   271      0   0   0
    71   871      0   0   0
    71    72      0   0   0
    71    80      0   0   0
    71   280      0   0   0
    71   872      0   0   0
    72    62      0   0   0
    72    82      0   0   0
    72   272      0   0   0
    72   872      0   0   0
    72    71      0   0   0
    72    73      0   0   0
    72   271      0   0   0
    72   873      0   0   0
    73    63      0   0   0
    73    83      0   0   0
    73   273      0   0   0
    73   873      0   0   0
    73    72      0   0   0
    73    74      0   0   0
    73   272      0   0   0
    73   874      0   0   0
    74    64      0   0   0
    74    84      0   0   0
    74   274      0   0   0
    74   874      0   0   0
    74    73      0   0   0
    74    75      0   0   0
    74   273      0   0   0
    74   875      0   0   0
    75    65      0   0   0
    75    85      0   0   0
    75   275      0   0   0
    75   875      0   0   0
    75    74      0   0   0
    75    76      0   0   0
    75   274      0   0   0
    75   876      0   0   0
    76    66      0   0   0
    76    86      0   0   0
    76   276      0   0   0
    76   876      0   0   0
    76    75      0   0   0
    76    77      1   0   0
    76   275      0   0   0
    76   877      1   0   0
    77    67      0   0   0
    77    87      0   0   0
    77   277      0   0   0
    77   877      0   0   0
    77    78      0   0   0
    77    76     -1   0   0
    77   878      0   0   0
    77   276     -1   0   0
    78    68      0   0   0
    78    88      0   0   0
    78   278      0   0   0
    78   878      0   0   0
    78    77      0   0   0
    78    79      0   0   0
    78   277      0   0   0
    78   879      0   0   0
    79    69      0   0   0
    79    89      0   0   0
    79   279      0   0   0
    79   879      0   0   0
    79    78      0   0   0
    79    80      0   0   0
    79   278      0   0   0
    79   880      0   0   0
    80    70      0   0   0
    80    90      0   0   0
    80   280      0   0   0
    80   880      0   0   0
    80    71      0   0   0
    80    79      0   0   0
    80   279      0   0   0
    80   871      0   0   0
    81    71      0   0   0
    81    91      0   0   0
    81   281      0   0   0
    81   881      0   0   0
    81    82      0   0   0
    81    90      0   0   0
    81   290      0   0   0
    81   882      0   0   0
    82    72      0   0   0
    82    92      0   0   0
    82   282      0   0   0
    82   882      0   0   0
    82    81      0   0   0
    82    83      0   0   0
    82   281      0   0   0
    82   883      0   0   0
    83    73      0   0   0
    83    93      0   0   0
    83   283      0   0   0
    83   883      0   0   0
    83    82      0   0   0
    83    84      0   0   0
    83   282      0   0   0
    83   884      0   0   0
    84    74      0   0   0
    84    94      0   0   0
    84   284      0   0   0
    84   884      0   0   0
    84    83      0   0   0
    84    85      0   0   0
    84   283      0   0   0
    84   885      0   0   0
    85    75      0   0   0
    85    95      0   0   0
    85   285      0   0   0
    85   885      0   0   0
    85    84      0   0   0
    85    86      0   0   0
    85   284      0   0   0
    85   886      0   0   0
    86    76      0   0   0
    86    96      0   0   0
    86   286      0   0   0
    86   886      0   0   0
    86    85      0   0   0
    86    87      1   0   0
    86   285      0   0   0
    86   887      1   0   0
    87    77      0   0   0
    87    97      0   0   0
    87   287      0   0   0
    87   887      0   0   0
    87    88      0   0   0
    87    86     -1   0   0
    87   888      0   0   0
    87   286     -1   0   0
    88    78      0   0   0
    88    98      0   0   0
    88   288      0   0   0
    88   888      0   0   0
    88    87      0   0   0
    88    89      0   0   0
    88   287      0   0   0
    88   889      0   0   0
    89    79      0   0   0
    89    99      0   0   0
    89   289      0   0   0
    89   889      0   0   0
    89    88      0   0   0
    89    90      0   0   0
    89   288      0   0   0
    89   890      0   0   0
    90    80      0   0   0
    90   100      0   0   0
    90   290      0   0   0
    90   890      0   0   0
    90    81      0   0   0
    90    89      0   0   0
    90   289      0   0   0
    90   881      0   0   0
    91    81      0   0   0
    91   101      0   0   0
    91   291      0   0   0
    91   891      0   0   0
    91    92      0   0   0
    91   100      0   0   0
    91   300      0   0   0
    91   892      0   0   0
    92    82      0   0   0
    92   102      0   0   0
    92   292      0   0   0
    92   892      0   0   0
    92    91      0   0   0
    92    93      0   0   0
    92   291      0   0   0
    92   893      0   0   0
    93    83      0   0   0
    93   103      0   0   0
    93   293      0   0   0
    93   893      0   0   0
    93    92      0   0   0
    93    94      0   0   0
    93   292      0   0   0
    93   894      0   0   0
    94    84      0   0   0
    94   104      0   0   0
    94   294      0   0   0
    94   894      0   0   0
    94    93      0   0   0
    94    95      0   0   0
    94   293      0   0   0
    94   895      0   0   0
    95    85      0   0   0
    95   105      0   0   0
    95   295      0   0   0
    95   895      0   0   0
    95    94      0   0   0
    95    96      0   0   0
    95   294      0   0   0
    95   896      0   0   0
    96    86      0   0   0
    96   106      0   0   0
    96   296      0   0   0
    96   896      0   0   0
    96    95      0   0   0
    96    97      1   0   0
    96   295      0   0   0
    96   897      1   0   0
    97    87      0   0   0
    97   107      0   0   0
    97   297      0   0   0
    97   897      0   0   0
    97    98      0   0   0
    97    96     -1   0   0
    97   898      0   0   0
    97   296     -1   0   0
    98    88      0   0   0
    98   108      0   0   0
    98   298      0   0   0
    98   898      0   0   0
    98    97      0   0   0
    98    99      0   0   0
    98   297      0   0   0
    98   899      0   0   0
    99    89      0   0   0
    99   109      0   0   0
    99   299      0   0   0
    99   899      0   0   0
    99    98      0   0   0
    99   100      0   0   0
    99   298      0   0   0
    99   900      0   0   0
   100    90      0   0   0
   100   110      0   0   0
   100   300      0   0   0
   100   900      0   0   0
   100    91      0   0   0
   100    99      0   0   0
   100   299      0   0   0
   100   891      0   0   0
   101    91      0   0   0
   101   111      0   1   0
   101   301      0   0   0
   101   901      0   0   0
   101   102      0   0   0
   101   110      0   0   0
   101   310      0   0   0
   101   902      0   0   0
   102    92      0   0   0
   102   112      0   1   0
   102   302      0   0   0
   102   902      0   0   0
   102   101      0   0   0
   102   103      0   0   0
   102   301      0   0   0
   102   903      0   0   0
   103    93      0   0   0
   103   113      0   1   0
   103   303      0   0   0
   103   903      0   0   0
   103   102      0   0   0
   103   104      0   0   0
   103   302      0   0   0
   103   904      0   0   0
   104    94      0   0   0
   104   114      0   1   0
   104   304      0   0   0
   104   904      0   0   0
   104   103      0   0   0
   104   105      0   0   0
   104   303      0   0   0
   104   905      0   0   0
   105    95      0   0   0
   105   115      0   1   0
   105   305      0   0   0
   105   905      0   0   0
   105   104      0   0   0
   105   106      0   0   0
   105   304      0   0   0
   105   906      0   0   0
   106    96      0   0   0
   106   116      0   1   0
   106   306      0   0   0
   106   906      0   0   0
   106   105      0   0   0
   106   107      1   0   0
   106   305      0   0   0
   106   907      1   0   0
   107    97      0   0   0
   107   117      0   1   0
   107   307      0   0   0
   107   907      0   0   0
   107   108      0   0   0
   107   106     -1   0   0
   107   908      0   0   0
   107   306     -1   0   0
   108    98      0   0   0
   108   118      0   1   0
   108   308      0   0   0
   108   908      0   0   0
   108   107      0   0   0
   108   109      0   0   0
   108   307      0   0   0
   108   909      0   0   0
   109    99      0   0   0
   109   119      0   1   0
   109   309      0   0   0
   109   909      0   0   0
   109   108      0   0   0
   109   110      0   0   0
   109   308      0   0   0
   109   910      0   0   0
   110   100      0   0   0
   110   120      0   1   0
   110   310      0   0   0
   110   910      0   0   0
   110   101      0   0   0
   110   109      0   0   0
   110   309      0   0   0
   110   901      0   0   0
   111   121      0   0   0
   111   101      0  -1   0
   111   311      0   0   0
   111   911      0   0   0
   111   112      0   0   0
   111   120      0   0   0
   111   320      0   0   0
   111   912      0   0   0
   112   122      0   0   0
   112   102      0  -1   0
   112   312      0   0   0
   112   912      0   0   0
   112   111      0   0   0
   112   113      0   0   0
   112   311      0   0   0
   112   913      0   0   0
   113   123      0   0   0
   113   103      0  -1   0
   113   313      0   0   0
   113   913      0   0   0
   113   112      0   0   0
   113   114      0   0   0
   113   312      0   0   0
   113   914      0   0   0
   114   124      0   0   0
   114   104      0  -1   0
   114   314      0   0   0
   114   914      0   0   0
   114   113      0   0   0
   114   115      0   0   0
   114   313      0   0   0
   114   915      0   0   0
   115   125      0   0   0
   115   105      0  -1   0
   115   315      0   0   0
   115   915      0   0   0
   115   114      0   0   0
   115   116      0   0   0
   115   314      0   0   0
   115   916      0   0   0
   116   126      0   0   0
   116   106      0  -1   0
   116   316      0   0   0
   116   916      0   0   0
   116   115      0   0   0
   116   117      1   0   0
   116   315      0   0   0
   116   917      1   0   0
   117   127      0   0   0
   117   107      0  -1   0
   117   317      0   0   0
   117   917      0   0   0
   117   118      0   0   0
   117   116     -1   0   0
   117   918      0   0   0
   117   316     -1   0   0
   118   128      0   0   0
   118   108      0  -1   0
   118   318      0   0   0
   118   918      0   0   0
   118   117      0   0   0
   118   119      0   0   0
   118   317      0   0   0
   118   919      0   0   0
   119   129      0   0   0
   119   109      0  -1   0
   119   319      0   0   0
   119   919      0   0   0
   119   118      0   0   0
   119   120      0   0   0
   119   318      0   0   0
   119   920      0   0   0
   120   130      0   0   0
   120   110      0  -1   0
   120   320      0   0   0
   120   920      0   0   0
   120   111      0   0   0
   120   119      0   0   0
   120   319      0   0   0
   120   911      0   0   0
   121   111      0   0   0
   121   131      0   0   0
   121   321      0   0   0
   121   921      0   0   0
   121   122      0   0   0
   121   130      0   0   0
   121   330      0   0   0
   121   922      0   0   0
   122   112      0   0   0
   122   132      0   0   0
   122   322      0   0   0
   122   922      0   0   0
   122   121      0   0   0
   122   123      0   0   0
   122   321      0   0   0
   122   923      0   0   0
   123   113      0   0   0
   123   133      0   0   0
   123   323      0   0   0
   123   923      0   0   0
   123   122      0   0   0
   123   124      0   0   0
   123   322      0   0   0
   123   924      0   0   0
   124   114      0   0   0
   124   134      0   0   0
   124   324      0   0   0
   124   924      0   0   0
   124   123      0   0   0
   124   125      0   0   0
   124   323      0   0   0
   124   925      0   0   0
   125   115      0   0   0
   125   135      0   0   0
   125   325      0   0   0
   125   925      0   0   0
   125   124      0   0   0
   125   126      0   0   0
   125   324      0   0   0
   125   926      0   0   0
   126   116      0   0   0
   126   136      0   0   0
   126   326      0   0   0
   126   926      0   0   0
   126   125      0   0   0
   126   127      1   0   0
   126   325      0   0   0
   126   927      1   0   0
   127   117      0   0   0
   127   137      0   0   0
   127   327      0   0   0
   127   927      0   0   0
   127   128      0   0   0
   127   126     -1   0   0
   127   928      0   0   0
   127   326     -1   0   0
   128   118      0   0   0
   128   138      0   0   0
   128   328      0   0   0
   128   928      0   0   0
   128   127      0   0   0
   128   129      0   0   0
   128   327      0   0   0
   128   929      0   0   0
   129   119      0   0   0
   129   139      0   0   0
   129   329      0   0   0
   129   929      0   0   0
   129   128      0   0   0
   129   130      0   0   0
   129   328      0   0   0
   129   930      0   0   0
   130   120      0   0   0
   130   140      0   0   0
   130   330      0   0   0
   130   930      0   0   0
   130   121      0   0   0
   130   129      0   0   0
   130   329      0   0   0
   130   921      0   0   0
   131   121      0   0   0
   131   141      0   0   0
   131   331      0   0   0
   131   931      0   0   0
   131   132      0   0   0
   131   140      0   0   0
   131   340      0   0   0
   131   932      0   0   0
   132   122      0   0   0
   132   142      0   0   0
   132   332      0   0   0
   132   932      0   0   0
   132   131      0   0   0
   132   133      0   0   0
   132   331      0   0   0
   132   933      0   0   0
   133   123      0   0   0
   133   143      0   0   0
   133   333      0   0   0
   133   933      0   0   0
   133   132      0   0   0
   133   134      0   0   0
   133   332      0   0   0
   133   934      0   0   0
   134   124      0   0   0
   134   144      0   0   0
   134   334      0   0   0
   134   934      0   0   0
   134   133      0   0   0
   134   135      0   0   0
   134   333      0   0   0
   134   935      0   0   0
   135   125      0   0   0
   135   145      0   0   0
   135   335      0   0   0
   135   935      0   0   0
   135   134      0   0   0
   135   136      0   0   0
   135   334      0   0   0
   135   936      0   0   0
   136   126      0   0   0
   136   146      0   0   0
   136   336      0   0   0
   136   936      0   0   0
   136   135      0   0   0
   136   137      1   0   0
   136   335      0   0   0
   136   937      1   0   0
   137   127      0   0   0
   137   147      0   0   0
   137   337      0   0   0
   137   937      0   0   0
   137   138      0   0   0
   137   136     -1   0   0
   137   938      0   0   0
   137   336     -1   0   0
   138   128      0   0   0
   138   148      0   0   0
   138   338      0   0   0
   138   938      0   0   0
   138   137      0   0   0
   138   139      0   0   0
   138   337      0   0   0
   138   939      0   0   0
   139   129      0   0   0
   139   149      0   0   0
   139   339      0   0   0
   139   939      0   0   0
   139   138      0   0   0
   139   140      0   0   0
   139   338      0   0   0
   139   940      0   0   0
[...]
   912   922      0   0   0
   912   902      0  -1   0
   912   112      0   0   0
   912   712      0   0   0
   912   911      0   0   0
   912   913      0   0   0
   912   111      0   0   0
   912   713      0   0   0
   913   923      0   0   0
   913   903      0  -1   0
   913   113      0   0   0
   913   713      0   0   0
   913   912      0   0   0
   913   914      0   0   0
   913   112      0   0   0
   913   714      0   0   0
   914   924      0   0   0
   914   904      0  -1   0
   914   114      0   0   0
   914   714      0   0   0
   914   913      0   0   0
   914   915      0   0   0
   914   113      0   0   0
   914   715      0   0   0
   915   925      0   0   0
   915   905      0  -1   0
   915   115      0   0   0
   915   715      0   0   0
   915   914      0   0   0
   915   916      0   0   0
   915   114      0   0   0
   915   716      0   0   0
   916   926      0   0   0
   916   906      0  -1   0
   916   116      0   0   0
   916   716      0   0   0
   916   915      0   0   0
   916   917      1   0   0
   916   115      0   0   0
   916   717      1   0   0
   917   927      0   0   0
   917   907      0  -1   0
   917   117      0   0   0
   917   717      0   0   0
   917   918      0   0   0
   917   916     -1   0   0
   917   718      0   0   0
   917   116     -1   0   0
   918   928      0   0   0
   918   908      0  -1   0
   918   118      0   0   0
   918   718      0   0   0
   918   917      0   0   0
   918   919      0   0   0
   918   117      0   0   0
   918   719      0   0   0
   919   929      0   0   0
   919   909      0  -1   0
   919   119      0   0   0
   919   719      0   0   0
   919   918      0   0   0
   919   920      0   0   0
   919   118      0   0   0
   919   720      0   0   0
   920   930      0   0   0
   920   910      0  -1   0
   920   120      0   0   0
   920   720      0   0   0
   920   911      0   0   0
   920   919      0   0   0
   920   119      0   0   0
   920   711      0   0   0
   921   911      0   0   0
   921   931      0   0   0
   921   121      0   0   0
   921   721      0   0   0
   921   922      0   0   0
   921   930      0   0   0
   921   130      0   0   0
   921   722      0   0   0
   922   912      0   0   0
   922   932      0   0   0
   922   122      0   0   0
   922   722      0   0   0
   922   921      0   0   0
   922   923      0   0   0
   922   121      0   0   0
   922   723      0   0   0
   923   913      0   0   0
   923   933      0   0   0
   923   123      0   0   0
   923   723      0   0   0
   923   922      0   0   0
   923   924      0   0   0
   923   122      0   0   0
   923   724      0   0   0
   924   914      0   0   0
   924   934      0   0   0
   924   124      0   0   0
   924   724      0   0   0
   924   923      0   0   0
   924   925      0   0   0
   924   123      0   0   0
   924   725      0   0   0
   925   915      0   0   0
   925   935      0   0   0
   925   125      0   0   0
   925   725      0   0   0
   925   924      0   0   0
   925   926      0   0   0
   925   124      0   0   0
   925   726      0   0   0
   926   916      0   0   0
   926   936      0   0   0
   926   126      0   0   0
   926   726      0   0   0
   926   925      0   0   0
   926   927      1   0   0
   926   125      0   0   0
   926   727      1   0   0
   927   917      0   0   0
   927   937      0   0   0
   927   127      0   0   0
   927   727      0   0   0
   927   928      0   0   0
   927   926     -1   0   0
   927   728      0   0   0
   927   126     -1   0   0
   928   918      0   0   0
   928   938      0   0   0
   928   128      0   0   0
   928   728      0   0   0
   928   927      0   0   0
   928   929      0   0   0
   928   127      0   0   0
   928   729      0   0   0
   929   919      0   0   0
   929   939      0   0   0
   929   129      0   0   0
   929   729      0   0   0
   929   928      0   0   0
   929   930      0   0   0
   929   128      0   0   0
   929   730      0   0   0
   930   920      0   0   0
   930   940      0   0   0
   930   130      0   0   0
   930   730      0   0   0
   930   921      0   0   0
   930   929      0   0   0
   930   129      0   0   0
   930   721      0   0   0
   931   921      0   0   0
   931   941      0   0   0
   931   131      0   0   0
   931   731      0   0   0
   931   932      0   0   0
   931   940      0   0   0
   931   140      0   0   0
   931   732      0   0   0
   932   922      0   0   0
   932   942      0   0   0
   932   132      0   0   0
   932   732      0   0   0
   932   931      0   0   0
   932   933      0   0   0
   932   131      0   0   0
   932   733      0   0   0
   933   923      0   0   0
   933   943      0   0   0
   933   133      0   0   0
   933   733      0   0   0
   933   932      0   0   0
   933   934      0   0   0
   933   132      0   0   0
   933   734      0   0   0
   934   924      0   0   0
   934   944      0   0   0
   934   134      0   0   0
   934   734      0   0   0
   934   933      0   0   0
   934   935      0   0   0
   934   133      0   0   0
   934   735      0   0   0
   935   925      0   0   0
   935   945      0   0   0
   935   135      0   0   0
   935   735      0   0   0
   935   934      0   0   0
   935   936      0   0   0
   935   134      0   0   0
   935   736      0   0   0
   936   926      0   0   0
   936   946      0   0   0
   936   136      0   0   0
   936   736      0   0   0
   936   935      0   0   0
   936   937      1   0   0
   936   135      0   0   0
   936   737      1   0   0
   937   927      0   0   0
   937   947      0   0   0
   937   137      0   0   0
   937   737      0   0   0
   937   938      0   0   0
   937   936     -1   0   0
   937   738      0   0   0
   937   136     -1   0   0
   938   928      0   0   0
   938   948      0   0   0
   938   138      0   0   0
   938   738      0   0   0
   938   937      0   0   0
   938   939      0   0   0
   938   137      0   0   0
   938   739      0   0   0
   939   929      0   0   0
   939   949      0   0   0
   939   139      0   0   0
   939   739      0   0   0
   939   938      0   0   0
   939   940      0   0   0
   939   138      0   0   0
   939   740      0   0   0
   940   930      0   0   0
   940   950      0   0   0
   940   140      0   0   0
   940   740      0   0   0
   940   931      0   0   0
   940   939      0   0   0
   940   139      0   0   0
   940   731      0   0   0
   941   931      0   0   0
   941   951      0   0   0
   941   141      0   0   0
   941   741      0   0   0
   941   942      0   0   0
   941   950      0   0   0
   941   150      0   0   0
   941   742      0   0   0
   942   932      0   0   0
   942   952      0   0   0
   942   142      0   0   0
   942   742      0   0   0
   942   941      0   0   0
   942   943      0   0   0
   942   141      0   0   0
   942   743      0   0   0
   943   933      0   0   0
   943   953      0   0   0
   943   143      0   0   0
   943   743      0   0   0
   943   942      0   0   0
   943   944      0   0   0
   943   142      0   0   0
   943   744      0   0   0
   944   934      0   0   0
   944   954      0   0   0
   944   144      0   0   0
   944   744      0   0   0
   944   943      0   0   0
   944   945      0   0   0
   944   143      0   0   0
   944   745      0   0   0
   945   935      0   0   0
   945   955      0   0   0
   945   145      0   0   0
   945   745      0   0   0
   945   944      0   0   0
   945   946      0   0   0
   945   144      0   0   0
   945   746      0   0   0
   946   936      0   0   0
   946   956      0   0   0
   946   146      0   0   0
   946   746      0   0   0
   946   945      0   0   0
   946   947      1   0   0
   946   145      0   0   0
   946   747      1   0   0
   947   937      0   0   0
   947   957      0   0   0
   947   147      0   0   0
   947   747      0   0   0
   947   948      0   0   0
   947   946     -1   0   0
   947   748      0   0   0
   947   146     -1   0   0
   948   938      0   0   0
   948   958      0   0   0
   948   148      0   0   0
   948   748      0   0   0
   948   947      0   0   0
   948   949      0   0   0
   948   147      0   0   0
   948   749      0   0   0
   949   939      0   0   0
   949   959      0   0   0
   949   149      0   0   0
   949   749      0   0   0
   949   948      0   0   0
   949   950      0   0   0
   949   148      0   0   0
   949   750      0   0   0
   950   940      0   0   0
   950   960      0   0   0
   950   150      0   0   0
   950   750      0   0   0
   950   941      0   0   0
   950   949      0   0   0
   950   149      0   0   0
   950   741      0   0   0
   951   941      0   0   0
   951   961      0   0   0
   951   151      0   0   0
   951   751      0   0   0
   951   952      0   0   0
   951   960      0   0   0
   951   160      0   0   0
   951   752      0   0   0
   952   942      0   0   0
   952   962      0   0   0
   952   152      0   0   0
   952   752      0   0   0
   952   951      0   0   0
   952   953      0   0   0
   952   151      0   0   0
   952   753      0   0   0
   953   943      0   0   0
   953   963      0   0   0
   953   153      0   0   0
   953   753      0   0   0
   953   952      0   0   0
   953   954      0   0   0
   953   152      0   0   0
   953   754      0   0   0
   954   944      0   0   0
   954   964      0   0   0
   954   154      0   0   0
   954   754      0   0   0
   954   953      0   0   0
   954   955      0   0   0
   954   153      0   0   0
   954   755      0   0   0
   955   945      0   0   0
   955   965      0   0   0
   955   155      0   0   0
   955   755      0   0   0
   955   954      0   0   0
   955   956      0   0   0
   955   154      0   0   0
   955   756      0   0   0
   956   946      0   0   0
   956   966      0   0   0
   956   156      0   0   0
   956   756      0   0   0
   956   955      0   0   0
   956   957      1   0   0
   956   155      0   0   0
   956   757      1   0   0
   957   947      0   0   0
   957   967      0   0   0
   957   157      0   0   0
   957   757      0   0   0
   957   958      0   0   0
   957   956     -1   0   0
   957   758      0   0   0
   957   156     -1   0   0
   958   948      0   0   0
   958   968      0   0   0
   958   158      0   0   0
   958   758      0   0   0
   958   957      0   0   0
   958   959      0   0   0
   958   157      0   0   0
   958   759      0   0   0
   959   949      0   0   0
   959   969      0   0   0
   959   159      0   0   0
   959   759      0   0   0
   959   958      0   0   0
   959   960      0   0   0
   959   158      0   0   0
   959   760      0   0   0
   960   950      0   0   0
   960   970      0   0   0
   960   160      0   0   0
   960   760      0   0   0
   960   951      0   0   0
   960   959      0   0   0
   960   159      0   0   0
   960   751      0   0   0
   961   951      0   0   0
   961   971      0   0   0
   961   161      0   0   0
   961   761      0   0   0
   961   962      0   0   0
   961   970      0   0   0
   961   170      0   0   0
   961   762      0   0   0
   962   952      0   0   0
   962   972      0   0   0
   962   162      0   0   0
   962   762      0   0   0
   962   961      0   0   0
   962   963      0   0   0
   962   161      0   0   0
   962   763      0   0   0
   963   953      0   0   0
   963   973      0   0   0
   963   163      0   0   0
   963   763      0   0   0
   963   962      0   0   0
   963   964      0   0   0
   963   162      0   0   0
   963   764      0   0   0
   964   954      0   0   0
   964   974      0   0   0
   964   164      0   0   0
   964   764      0   0   0
   964   963      0   0   0
   964   965      0   0   0
   964   163      0   0   0
   964   765      0   0   0
   965   955      0   0   0
   965   975      0   0   0
   965   165      0   0   0
   965   765      0   0   0
   965   964      0   0   0
   965   966      0   0   0
   965   164      0   0   0
   965   766      0   0   0
   966   956      0   0   0
   966   976      0   0   0
   966   166      0   0   0
   966   766      0   0   0
   966   965      0   0   0
   966   967      1   0   0
   966   165      0   0   0
   966   767      1   0   0
   967   957      0   0   0
   967   977      0   0   0
   967   167      0   0   0
   967   767      0   0   0
   967   968      0   0   0
   967   966     -1   0   0
   967   768      0   0   0
   967   166     -1   0   0
   968   958      0   0   0
   968   978      0   0   0
   968   168      0   0   0
   968   768      0   0   0
   968   967      0   0   0
   968   969      0   0   0
   968   167      0   0   0
   968   769      0   0   0
   969   959      0   0   0
   969   979      0   0   0
   969   169      0   0   0
   969   769      0   0   0
   969   968      0   0   0
   969   970      0   0   0
   969   168      0   0   0
   969   770      0   0   0
   970   960      0   0   0
   970   980      0   0   0
   970   170      0   0   0
   970   770      0   0   0
   970   961      0   0   0
   970   969      0   0   0
   970   169      0   0   0
   970   761      0   0   0
   971   961      0   0   0
   971   981      0   0   0
   971   171      0   0   0
   971   771      0   0   0
   971   972      0   0   0
   971   980      0   0   0
   971   180      0   0   0
   971   772      0   0   0
   972   962      0   0   0
   972   982      0   0   0
   972   172      0   0   0
   972   772      0   0   0
   972   971      0   0   0
   972   973      0   0   0
   972   171      0   0   0
   972   773      0   0   0
   973   963      0   0   0
   973   983      0   0   0
   973   173      0   0   0
   973   773      0   0   0
   973   972      0   0   0
   973   974      0   0   0
   973   172      0   0   0
   973   774      0   0   0
   974   964      0   0   0
   974   984      0   0   0
   974   174      0   0   0
   974   774      0   0   0
   974   973      0   0   0
   974   975      0   0   0
   974   173      0   0   0
   974   775      0   0   0
   975   965      0   0   0
   975   985      0   0   0
   975   175      0   0   0
   975   775      0   0   0
   975   974      0   0   0
   975   976      0   0   0
   975   174      0   0   0
   975   776      0   0   0
   976   966      0   0   0
   976   986      0   0   0
   976   176      0   0   0
   976   776      0   0   0
   976   975      0   0   0
   976   977      1   0   0
   976   175      0   0   0
   976   777      1   0   0
   977   967      0   0   0
   977   987      0   0   0
   977   177      0   0   0
   977   777      0   0   0
   977   978      0   0   0
   977   976     -1   0   0
   977   778      0   0   0
   977   176     -1   0   0
   978   968      0   0   0
   978   988      0   0   0
   978   178      0   0   0
   978   778      0   0   0
   978   977      0   0   0
   978   979      0   0   0
   978   177      0   0   0
   978   779      0   0   0
   979   969      0   0   0
   979   989      0   0   0
   979   179      0   0   0
   979   779      0   0   0
   979   978      0   0   0
   979   980      0   0   0
   979   178      0   0   0
   979   780      0   0   0
   980   970      0   0   0
   980   990      0   0   0
   980   180      0   0   0
   980   780      0   0   0
   980   971      0   0   0
   980   979      0   0   0
   980   179      0   0   0
   980   771      0   0   0
   981   971      0   0   0
   981   991      0   0   0
   981   181      0   0   0
   981   781      0   0   0
   981   982      0   0   0
   981   990      0   0   0
   981   190      0   0   0
   981   782      0   0   0
   982   972      0   0   0
   982   992      0   0   0
   982   182      0   0   0
   982   782      0   0   0
   982   981      0   0   0
   982   983      0   0   0
   982   181      0   0   0
   982   783      0   0   0
   983   973      0   0   0
   983   993      0   0   0
   983   183      0   0   0
   983   783      0   0   0
   983   982      0   0   0
   983   984      0   0   0
   983   182      0   0   0
   983   784      0   0   0
   984   974      0   0   0
   984   994      0   0   0
   984   184      0   0   0
   984   784      0   0   0
   984   983      0   0   0
   984   985      0   0   0
   984   183      0   0   0
   984   785      0   0   0
   985   975      0   0   0
   985   995      0   0   0
   985   185      0   0   0
   985   785      0   0   0
   985   984      0   0   0
   985   986      0   0   0
   985   184      0   0   0
   985   786      0   0   0
   986   976      0   0   0
   986   996      0   0   0
   986   186      0   0   0
   986   786      0   0   0
   986   985      0   0   0
   986   987      1   0   0
   986   185      0   0   0
   986   787      1   0   0
   987   977      0   0   0
   987   997      0   0   0
   987   187      0   0   0
   987   787      0   0   0
   987   988      0   0   0
   987   986     -1   0   0
   987   788      0   0   0
   987   186     -1   0   0
   988   978      0   0   0
   988   998      0   0   0
   988   188      0   0   0
   988   788      0   0   0
   988   987      0   0   0
   988   989      0   0   0
   988   187      0   0   0
   988   789      0   0   0
   989   979      0   0   0
   989   999      0   0   0
   989   189      0   0   0
   989   789      0   0   0
   989   988      0   0   0
   989   990      0   0   0
   989   188      0   0   0
   989   790      0   0   0
   990   980      0   0   0
   990  1000      0   0   0
   990   190      0   0   0
   990   790      0   0   0
   990   981      0   0   0
   990   989      0   0   0
   990   189      0   0   0
   990   781      0   0   0
   991   801      0   0   0
   991   981      0   0   0
   991   191      0   0   0
   991   791      0   0   0
   991   992      0   0   0
   991  1000      0   0   0
   991   200      0   0   0
   991   792      0   0   0
   992   802      0   0   0
   992   982      0   0   0
   992   192      0   0   0
   992   792      0   0   0
   992   991      0   0   0
   992   993      0   0   0
   992   191      0   0   0
   992   793      0   0   0
   993   803      0   0   0
   993   983      0   0   0
   993   193      0   0   0
   993   793      0   0   0
   993   992      0   0   0
   993   994      0   0   0
   993   192      0   0   0
   993   794      0   0   0
   994   804      0   0   0
   994   984      0   0   0
   994   194      0   0   0
   994   794      0   0   0
   994   993      0   0   0
   994   995      0   0   0
   994   193      0   0   0
   994   795      0   0   0
   995   805      0   0   0
   995   985      0   0   0
   995   195      0   0   0
   995   795      0   0   0
   995   994      0   0   0
   995   996      0   0   0
   995   194      0   0   0
   995   796      0   0   0
   996   806      0   0   0
   996   986      0   0   0
   996   196      0   0   0
   996   796      0   0   0
   996   995      0   0   0
   996   997      1   0   0
   996   195      0   0   0
   996   797      1   0   0
   997   807      0   0   0
   997   987      0   0   0
   997   197      0   0   0
   997   797      0   0   0
   997   998      0   0   0
   997   996     -1   0   0
   997   798      0   0   0
   997   196     -1   0   0
   998   808      0   0   0
   998   988      0   0   0
   998   198      0   0   0
   998   798      0   0   0
   998   997      0   0   0
   998   999      0   0   0
   998   197      0   0   0
   998   799      0   0   0
   999   809      0   0   0
   999   989      0   0   0
   999   199      0   0   0
   999   799      0   0   0
   999   998      0   0   0
   999  1000      0   0   0
   999   198      0   0   0
   999   800      0   0   0
  1000   810      0   0   0
  1000   990      0   0   0
  1000   200      0   0   0
  1000   800      0   0   0
  1000   991      0   0   0
  1000   999      0   0   0
  1000   199      0   0   0
  1000   791      0   0   0
end nnkpts

begin exclude_bands
   0
end exclude_bands
